s -t 1.000000000 -Hs 0 -Hd -2 -Ni 0 -Nx 20.00 -Ny 50.00 -Nz 0.00 -Ne -1.000000 -Nl AGT -Nw --- -Ma 0 -Md 0 -Ms 0 -Mt 0 -Is 0.0 -Id 2.0 -It cbr -Il 1000 -If 0 -Ii 0 -Iv 32 -Pn cbr -Pi 0 -Pf 0 -Po 0 
r -t 1.000000000 -Hs 0 -Hd -2 -Ni 0 -Nx 20.00 -Ny 50.00 -Nz 0.00 -Ne -1.000000 -Nl RTR -Nw --- -Ma 0 -Md 0 -Ms 0 -Mt 0 -Is 0.0 -Id 2.0 -It cbr -Il 1000 -If 0 -Ii 0 -Iv 32 -Pn cbr -Pi 0 -Pf 0 -Po 0 
s -t 1.000006792 -Hs 0 -Hd 0 -Ni 0 -Nx 20.00 -Ny 50.00 -Nz 0.00 -Ne -1.000000 -Nl RTR -Nw --- -Ma 0 -Md 0 -Ms 0 -Mt 0 -Is 0.255 -Id -1.255 -It AODVUU -Il 44 -If 0 -Ii 1 -Iv 1 -P aodvuu -Pt 0x1 -Ph 0 -Pb 0 -Pd 2 -Pds 0 -Ps 0 -Pss 2 -Pc REQUEST 
s -t 1.000006792 -Hs 0 -Hd 0 -Ni 0 -Nx 20.00 -Ny 50.00 -Nz 0.00 -Ne -1.000000 -Nl RTR -Nw --- -Ma 0 -Md 0 -Ms 0 -Mt 0 -Is 0.255 -Id -1.255 -It AODVUU -Il 44 -If 0 -Ii 1 -Iv 1 -P aodvuu -Pt 0x1 -Ph 0 -Pb 0 -Pd 2 -Pds 0 -Ps 0 -Pss 2 -Pc REQUEST 
s -t 1.000006792 -Hs 0 -Hd 0 -Ni 0 -Nx 20.00 -Ny 50.00 -Nz 0.00 -Ne -1.000000 -Nl RTR -Nw --- -Ma 0 -Md 0 -Ms 0 -Mt 0 -Is 0.255 -Id -1.255 -It AODVUU -Il 44 -If 0 -Ii 1 -Iv 1 -P aodvuu -Pt 0x1 -Ph 0 -Pb 0 -Pd 2 -Pds 0 -Ps 0 -Pss 2 -Pc REQUEST 
s -t 1.001400000 -Hs 0 -Hd -2 -Ni 0 -Nx 20.00 -Ny 50.00 -Nz 0.00 -Ne -1.000000 -Nl AGT -Nw --- -Ma 0 -Md 0 -Ms 0 -Mt 0 -Is 0.0 -Id 2.0 -It cbr -Il 1000 -If 0 -Ii 2 -Iv 32 -Pn cbr -Pi 1 -Pf 0 -Po 0 
r -t 1.001400000 -Hs 0 -Hd -2 -Ni 0 -Nx 20.00 -Ny 50.00 -Nz 0.00 -Ne -1.000000 -Nl RTR -Nw --- -Ma 0 -Md 0 -Ms 0 -Mt 0 -Is 0.0 -Id 2.0 -It cbr -Il 1000 -If 0 -Ii 2 -Iv 32 -Pn cbr -Pi 1 -Pf 0 -Po 0 
r -t 1.001553433 -Hs 1 -Hd 0 -Ni 1 -Nx 270.00 -Ny 50.00 -Nz 0.00 -Ne -1.000000 -Nl RTR -Nw --- -Ma 0 -Md ffffffff -Ms 0 -Mt 800 -Is 0.255 -Id -1.255 -It AODVUU -Il 44 -If 0 -Ii 1 -Iv 1 -P aodvuu -Pt 0x1 -Ph 0 -Pb 0 -Pd 2 -Pds 0 -Ps 0 -Pss 2 -Pc REQUEST 
r -t 1.001813433 -Hs 1 -Hd 0 -Ni 1 -Nx 270.00 -Ny 50.00 -Nz 0.00 -Ne -1.000000 -Nl RTR -Nw --- -Ma 0 -Md ffffffff -Ms 2 -Mt 800 -Is 0.255 -Id -1.255 -It AODVUU -Il 44 -If 0 -Ii 1 -Iv 1 -P aodvuu -Pt 0x1 -Ph 0 -Pb 0 -Pd 2 -Pds 0 -Ps 0 -Pss 2 -Pc REQUEST 
r -t 1.002073433 -Hs 1 -Hd 0 -Ni 1 -Nx 270.00 -Ny 50.00 -Nz 0.00 -Ne -1.000000 -Nl RTR -Nw --- -Ma 0 -Md ffffffff -Ms 1 -Mt 800 -Is 0.255 -Id -1.255 -It AODVUU -Il 44 -If 0 -Ii 1 -Iv 1 -P aodvuu -Pt 0x1 -Ph 0 -Pb 0 -Pd 2 -Pds 0 -Ps 0 -Pss 2 -Pc REQUEST 
s -t 1.002800000 -Hs 0 -Hd -2 -Ni 0 -Nx 20.00 -Ny 50.00 -Nz 0.00 -Ne -1.000000 -Nl AGT -Nw --- -Ma 0 -Md 0 -Ms 0 -Mt 0 -Is 0.0 -Id 2.0 -It cbr -Il 1000 -If 0 -Ii 3 -Iv 32 -Pn cbr -Pi 2 -Pf 0 -Po 0 
r -t 1.002800000 -Hs 0 -Hd -2 -Ni 0 -Nx 20.00 -Ny 50.00 -Nz 0.00 -Ne -1.000000 -Nl RTR -Nw --- -Ma 0 -Md 0 -Ms 0 -Mt 0 -Is 0.0 -Id 2.0 -It cbr -Il 1000 -If 0 -Ii 3 -Iv 32 -Pn cbr -Pi 2 -Pf 0 -Po 0 
s -t 1.004200000 -Hs 0 -Hd -2 -Ni 0 -Nx 20.00 -Ny 50.00 -Nz 0.00 -Ne -1.000000 -Nl AGT -Nw --- -Ma 0 -Md 0 -Ms 0 -Mt 0 -Is 0.0 -Id 2.0 -It cbr -Il 1000 -If 0 -Ii 4 -Iv 32 -Pn cbr -Pi 3 -Pf 0 -Po 0 
r -t 1.004200000 -Hs 0 -Hd -2 -Ni 0 -Nx 20.00 -Ny 50.00 -Nz 0.00 -Ne -1.000000 -Nl RTR -Nw --- -Ma 0 -Md 0 -Ms 0 -Mt 0 -Is 0.0 -Id 2.0 -It cbr -Il 1000 -If 0 -Ii 4 -Iv 32 -Pn cbr -Pi 3 -Pf 0 -Po 0 
s -t 1.005600000 -Hs 0 -Hd -2 -Ni 0 -Nx 20.00 -Ny 50.00 -Nz 0.00 -Ne -1.000000 -Nl AGT -Nw --- -Ma 0 -Md 0 -Ms 0 -Mt 0 -Is 0.0 -Id 2.0 -It cbr -Il 1000 -If 0 -Ii 5 -Iv 32 -Pn cbr -Pi 4 -Pf 0 -Po 0 
r -t 1.005600000 -Hs 0 -Hd -2 -Ni 0 -Nx 20.00 -Ny 50.00 -Nz 0.00 -Ne -1.000000 -Nl RTR -Nw --- -Ma 0 -Md 0 -Ms 0 -Mt 0 -Is 0.0 -Id 2.0 -It cbr -Il 1000 -If 0 -Ii 5 -Iv 32 -Pn cbr -Pi 4 -Pf 0 -Po 0 
s -t 1.007000000 -Hs 0 -Hd -2 -Ni 0 -Nx 20.00 -Ny 50.00 -Nz 0.00 -Ne -1.000000 -Nl AGT -Nw --- -Ma 0 -Md 0 -Ms 0 -Mt 0 -Is 0.0 -Id 2.0 -It cbr -Il 1000 -If 0 -Ii 6 -Iv 32 -Pn cbr -Pi 5 -Pf 0 -Po 0 
r -t 1.007000000 -Hs 0 -Hd -2 -Ni 0 -Nx 20.00 -Ny 50.00 -Nz 0.00 -Ne -1.000000 -Nl RTR -Nw --- -Ma 0 -Md 0 -Ms 0 -Mt 0 -Is 0.0 -Id 2.0 -It cbr -Il 1000 -If 0 -Ii 6 -Iv 32 -Pn cbr -Pi 5 -Pf 0 -Po 0 
s -t 1.008400000 -Hs 0 -Hd -2 -Ni 0 -Nx 20.00 -Ny 50.00 -Nz 0.00 -Ne -1.000000 -Nl AGT -Nw --- -Ma 0 -Md 0 -Ms 0 -Mt 0 -Is 0.0 -Id 2.0 -It cbr -Il 1000 -If 0 -Ii 7 -Iv 32 -Pn cbr -Pi 6 -Pf 0 -Po 0 
r -t 1.008400000 -Hs 0 -Hd -2 -Ni 0 -Nx 20.00 -Ny 50.00 -Nz 0.00 -Ne -1.000000 -Nl RTR -Nw --- -Ma 0 -Md 0 -Ms 0 -Mt 0 -Is 0.0 -Id 2.0 -It cbr -Il 1000 -If 0 -Ii 7 -Iv 32 -Pn cbr -Pi 6 -Pf 0 -Po 0 
s -t 1.009800000 -Hs 0 -Hd -2 -Ni 0 -Nx 20.00 -Ny 50.00 -Nz 0.00 -Ne -1.000000 -Nl AGT -Nw --- -Ma 0 -Md 0 -Ms 0 -Mt 0 -Is 0.0 -Id 2.0 -It cbr -Il 1000 -If 0 -Ii 8 -Iv 32 -Pn cbr -Pi 7 -Pf 0 -Po 0 
r -t 1.009800000 -Hs 0 -Hd -2 -Ni 0 -Nx 20.00 -Ny 50.00 -Nz 0.00 -Ne -1.000000 -Nl RTR -Nw --- -Ma 0 -Md 0 -Ms 0 -Mt 0 -Is 0.0 -Id 2.0 -It cbr -Il 1000 -If 0 -Ii 8 -Iv 32 -Pn cbr -Pi 7 -Pf 0 -Po 0 
s -t 1.011200000 -Hs 0 -Hd -2 -Ni 0 -Nx 20.00 -Ny 50.00 -Nz 0.00 -Ne -1.000000 -Nl AGT -Nw --- -Ma 0 -Md 0 -Ms 0 -Mt 0 -Is 0.0 -Id 2.0 -It cbr -Il 1000 -If 0 -Ii 9 -Iv 32 -Pn cbr -Pi 8 -Pf 0 -Po 0 
r -t 1.011200000 -Hs 0 -Hd -2 -Ni 0 -Nx 20.00 -Ny 50.00 -Nz 0.00 -Ne -1.000000 -Nl RTR -Nw --- -Ma 0 -Md 0 -Ms 0 -Mt 0 -Is 0.0 -Id 2.0 -It cbr -Il 1000 -If 0 -Ii 9 -Iv 32 -Pn cbr -Pi 8 -Pf 0 -Po 0 
s -t 1.012600000 -Hs 0 -Hd -2 -Ni 0 -Nx 20.00 -Ny 50.00 -Nz 0.00 -Ne -1.000000 -Nl AGT -Nw --- -Ma 0 -Md 0 -Ms 0 -Mt 0 -Is 0.0 -Id 2.0 -It cbr -Il 1000 -If 0 -Ii 10 -Iv 32 -Pn cbr -Pi 9 -Pf 0 -Po 0 
r -t 1.012600000 -Hs 0 -Hd -2 -Ni 0 -Nx 20.00 -Ny 50.00 -Nz 0.00 -Ne -1.000000 -Nl RTR -Nw --- -Ma 0 -Md 0 -Ms 0 -Mt 0 -Is 0.0 -Id 2.0 -It cbr -Il 1000 -If 0 -Ii 10 -Iv 32 -Pn cbr -Pi 9 -Pf 0 -Po 0 
s -t 1.014000000 -Hs 0 -Hd -2 -Ni 0 -Nx 20.00 -Ny 50.00 -Nz 0.00 -Ne -1.000000 -Nl AGT -Nw --- -Ma 0 -Md 0 -Ms 0 -Mt 0 -Is 0.0 -Id 2.0 -It cbr -Il 1000 -If 0 -Ii 11 -Iv 32 -Pn cbr -Pi 10 -Pf 0 -Po 0 
r -t 1.014000000 -Hs 0 -Hd -2 -Ni 0 -Nx 20.00 -Ny 50.00 -Nz 0.00 -Ne -1.000000 -Nl RTR -Nw --- -Ma 0 -Md 0 -Ms 0 -Mt 0 -Is 0.0 -Id 2.0 -It cbr -Il 1000 -If 0 -Ii 11 -Iv 32 -Pn cbr -Pi 10 -Pf 0 -Po 0 
s -t 1.015400000 -Hs 0 -Hd -2 -Ni 0 -Nx 20.00 -Ny 50.00 -Nz 0.00 -Ne -1.000000 -Nl AGT -Nw --- -Ma 0 -Md 0 -Ms 0 -Mt 0 -Is 0.0 -Id 2.0 -It cbr -Il 1000 -If 0 -Ii 12 -Iv 32 -Pn cbr -Pi 11 -Pf 0 -Po 0 
r -t 1.015400000 -Hs 0 -Hd -2 -Ni 0 -Nx 20.00 -Ny 50.00 -Nz 0.00 -Ne -1.000000 -Nl RTR -Nw --- -Ma 0 -Md 0 -Ms 0 -Mt 0 -Is 0.0 -Id 2.0 -It cbr -Il 1000 -If 0 -Ii 12 -Iv 32 -Pn cbr -Pi 11 -Pf 0 -Po 0 
s -t 1.016800000 -Hs 0 -Hd -2 -Ni 0 -Nx 20.00 -Ny 50.00 -Nz 0.00 -Ne -1.000000 -Nl AGT -Nw --- -Ma 0 -Md 0 -Ms 0 -Mt 0 -Is 0.0 -Id 2.0 -It cbr -Il 1000 -If 0 -Ii 13 -Iv 32 -Pn cbr -Pi 12 -Pf 0 -Po 0 
r -t 1.016800000 -Hs 0 -Hd -2 -Ni 0 -Nx 20.00 -Ny 50.00 -Nz 0.00 -Ne -1.000000 -Nl RTR -Nw --- -Ma 0 -Md 0 -Ms 0 -Mt 0 -Is 0.0 -Id 2.0 -It cbr -Il 1000 -If 0 -Ii 13 -Iv 32 -Pn cbr -Pi 12 -Pf 0 -Po 0 
s -t 1.018200000 -Hs 0 -Hd -2 -Ni 0 -Nx 20.00 -Ny 50.00 -Nz 0.00 -Ne -1.000000 -Nl AGT -Nw --- -Ma 0 -Md 0 -Ms 0 -Mt 0 -Is 0.0 -Id 2.0 -It cbr -Il 1000 -If 0 -Ii 14 -Iv 32 -Pn cbr -Pi 13 -Pf 0 -Po 0 
r -t 1.018200000 -Hs 0 -Hd -2 -Ni 0 -Nx 20.00 -Ny 50.00 -Nz 0.00 -Ne -1.000000 -Nl RTR -Nw --- -Ma 0 -Md 0 -Ms 0 -Mt 0 -Is 0.0 -Id 2.0 -It cbr -Il 1000 -If 0 -Ii 14 -Iv 32 -Pn cbr -Pi 13 -Pf 0 -Po 0 
s -t 1.019600000 -Hs 0 -Hd -2 -Ni 0 -Nx 20.00 -Ny 50.00 -Nz 0.00 -Ne -1.000000 -Nl AGT -Nw --- -Ma 0 -Md 0 -Ms 0 -Mt 0 -Is 0.0 -Id 2.0 -It cbr -Il 1000 -If 0 -Ii 15 -Iv 32 -Pn cbr -Pi 14 -Pf 0 -Po 0 
r -t 1.019600000 -Hs 0 -Hd -2 -Ni 0 -Nx 20.00 -Ny 50.00 -Nz 0.00 -Ne -1.000000 -Nl RTR -Nw --- -Ma 0 -Md 0 -Ms 0 -Mt 0 -Is 0.0 -Id 2.0 -It cbr -Il 1000 -If 0 -Ii 15 -Iv 32 -Pn cbr -Pi 14 -Pf 0 -Po 0 
s -t 1.021000000 -Hs 0 -Hd -2 -Ni 0 -Nx 20.00 -Ny 50.00 -Nz 0.00 -Ne -1.000000 -Nl AGT -Nw --- -Ma 0 -Md 0 -Ms 0 -Mt 0 -Is 0.0 -Id 2.0 -It cbr -Il 1000 -If 0 -Ii 16 -Iv 32 -Pn cbr -Pi 15 -Pf 0 -Po 0 
r -t 1.021000000 -Hs 0 -Hd -2 -Ni 0 -Nx 20.00 -Ny 50.00 -Nz 0.00 -Ne -1.000000 -Nl RTR -Nw --- -Ma 0 -Md 0 -Ms 0 -Mt 0 -Is 0.0 -Id 2.0 -It cbr -Il 1000 -If 0 -Ii 16 -Iv 32 -Pn cbr -Pi 15 -Pf 0 -Po 0 
s -t 1.022400000 -Hs 0 -Hd -2 -Ni 0 -Nx 20.00 -Ny 50.00 -Nz 0.00 -Ne -1.000000 -Nl AGT -Nw --- -Ma 0 -Md 0 -Ms 0 -Mt 0 -Is 0.0 -Id 2.0 -It cbr -Il 1000 -If 0 -Ii 17 -Iv 32 -Pn cbr -Pi 16 -Pf 0 -Po 0 
r -t 1.022400000 -Hs 0 -Hd -2 -Ni 0 -Nx 20.00 -Ny 50.00 -Nz 0.00 -Ne -1.000000 -Nl RTR -Nw --- -Ma 0 -Md 0 -Ms 0 -Mt 0 -Is 0.0 -Id 2.0 -It cbr -Il 1000 -If 0 -Ii 17 -Iv 32 -Pn cbr -Pi 16 -Pf 0 -Po 0 
s -t 1.023800000 -Hs 0 -Hd -2 -Ni 0 -Nx 20.00 -Ny 50.00 -Nz 0.00 -Ne -1.000000 -Nl AGT -Nw --- -Ma 0 -Md 0 -Ms 0 -Mt 0 -Is 0.0 -Id 2.0 -It cbr -Il 1000 -If 0 -Ii 18 -Iv 32 -Pn cbr -Pi 17 -Pf 0 -Po 0 
r -t 1.023800000 -Hs 0 -Hd -2 -Ni 0 -Nx 20.00 -Ny 50.00 -Nz 0.00 -Ne -1.000000 -Nl RTR -Nw --- -Ma 0 -Md 0 -Ms 0 -Mt 0 -Is 0.0 -Id 2.0 -It cbr -Il 1000 -If 0 -Ii 18 -Iv 32 -Pn cbr -Pi 17 -Pf 0 -Po 0 
s -t 1.025200000 -Hs 0 -Hd -2 -Ni 0 -Nx 20.00 -Ny 50.00 -Nz 0.00 -Ne -1.000000 -Nl AGT -Nw --- -Ma 0 -Md 0 -Ms 0 -Mt 0 -Is 0.0 -Id 2.0 -It cbr -Il 1000 -If 0 -Ii 19 -Iv 32 -Pn cbr -Pi 18 -Pf 0 -Po 0 
r -t 1.025200000 -Hs 0 -Hd -2 -Ni 0 -Nx 20.00 -Ny 50.00 -Nz 0.00 -Ne -1.000000 -Nl RTR -Nw --- -Ma 0 -Md 0 -Ms 0 -Mt 0 -Is 0.0 -Id 2.0 -It cbr -Il 1000 -If 0 -Ii 19 -Iv 32 -Pn cbr -Pi 18 -Pf 0 -Po 0 
s -t 1.026600000 -Hs 0 -Hd -2 -Ni 0 -Nx 20.00 -Ny 50.00 -Nz 0.00 -Ne -1.000000 -Nl AGT -Nw --- -Ma 0 -Md 0 -Ms 0 -Mt 0 -Is 0.0 -Id 2.0 -It cbr -Il 1000 -If 0 -Ii 20 -Iv 32 -Pn cbr -Pi 19 -Pf 0 -Po 0 
r -t 1.026600000 -Hs 0 -Hd -2 -Ni 0 -Nx 20.00 -Ny 50.00 -Nz 0.00 -Ne -1.000000 -Nl RTR -Nw --- -Ma 0 -Md 0 -Ms 0 -Mt 0 -Is 0.0 -Id 2.0 -It cbr -Il 1000 -If 0 -Ii 20 -Iv 32 -Pn cbr -Pi 19 -Pf 0 -Po 0 
s -t 1.028000000 -Hs 0 -Hd -2 -Ni 0 -Nx 20.00 -Ny 50.00 -Nz 0.00 -Ne -1.000000 -Nl AGT -Nw --- -Ma 0 -Md 0 -Ms 0 -Mt 0 -Is 0.0 -Id 2.0 -It cbr -Il 1000 -If 0 -Ii 21 -Iv 32 -Pn cbr -Pi 20 -Pf 0 -Po 0 
r -t 1.028000000 -Hs 0 -Hd -2 -Ni 0 -Nx 20.00 -Ny 50.00 -Nz 0.00 -Ne -1.000000 -Nl RTR -Nw --- -Ma 0 -Md 0 -Ms 0 -Mt 0 -Is 0.0 -Id 2.0 -It cbr -Il 1000 -If 0 -Ii 21 -Iv 32 -Pn cbr -Pi 20 -Pf 0 -Po 0 
s -t 1.029400000 -Hs 0 -Hd -2 -Ni 0 -Nx 20.00 -Ny 50.00 -Nz 0.00 -Ne -1.000000 -Nl AGT -Nw --- -Ma 0 -Md 0 -Ms 0 -Mt 0 -Is 0.0 -Id 2.0 -It cbr -Il 1000 -If 0 -Ii 22 -Iv 32 -Pn cbr -Pi 21 -Pf 0 -Po 0 
r -t 1.029400000 -Hs 0 -Hd -2 -Ni 0 -Nx 20.00 -Ny 50.00 -Nz 0.00 -Ne -1.000000 -Nl RTR -Nw --- -Ma 0 -Md 0 -Ms 0 -Mt 0 -Is 0.0 -Id 2.0 -It cbr -Il 1000 -If 0 -Ii 22 -Iv 32 -Pn cbr -Pi 21 -Pf 0 -Po 0 
s -t 1.030800000 -Hs 0 -Hd -2 -Ni 0 -Nx 20.00 -Ny 50.00 -Nz 0.00 -Ne -1.000000 -Nl AGT -Nw --- -Ma 0 -Md 0 -Ms 0 -Mt 0 -Is 0.0 -Id 2.0 -It cbr -Il 1000 -If 0 -Ii 23 -Iv 32 -Pn cbr -Pi 22 -Pf 0 -Po 0 
r -t 1.030800000 -Hs 0 -Hd -2 -Ni 0 -Nx 20.00 -Ny 50.00 -Nz 0.00 -Ne -1.000000 -Nl RTR -Nw --- -Ma 0 -Md 0 -Ms 0 -Mt 0 -Is 0.0 -Id 2.0 -It cbr -Il 1000 -If 0 -Ii 23 -Iv 32 -Pn cbr -Pi 22 -Pf 0 -Po 0 
s -t 1.032200000 -Hs 0 -Hd -2 -Ni 0 -Nx 20.00 -Ny 50.00 -Nz 0.00 -Ne -1.000000 -Nl AGT -Nw --- -Ma 0 -Md 0 -Ms 0 -Mt 0 -Is 0.0 -Id 2.0 -It cbr -Il 1000 -If 0 -Ii 24 -Iv 32 -Pn cbr -Pi 23 -Pf 0 -Po 0 
r -t 1.032200000 -Hs 0 -Hd -2 -Ni 0 -Nx 20.00 -Ny 50.00 -Nz 0.00 -Ne -1.000000 -Nl RTR -Nw --- -Ma 0 -Md 0 -Ms 0 -Mt 0 -Is 0.0 -Id 2.0 -It cbr -Il 1000 -If 0 -Ii 24 -Iv 32 -Pn cbr -Pi 23 -Pf 0 -Po 0 
s -t 1.033600000 -Hs 0 -Hd -2 -Ni 0 -Nx 20.00 -Ny 50.00 -Nz 0.00 -Ne -1.000000 -Nl AGT -Nw --- -Ma 0 -Md 0 -Ms 0 -Mt 0 -Is 0.0 -Id 2.0 -It cbr -Il 1000 -If 0 -Ii 25 -Iv 32 -Pn cbr -Pi 24 -Pf 0 -Po 0 
r -t 1.033600000 -Hs 0 -Hd -2 -Ni 0 -Nx 20.00 -Ny 50.00 -Nz 0.00 -Ne -1.000000 -Nl RTR -Nw --- -Ma 0 -Md 0 -Ms 0 -Mt 0 -Is 0.0 -Id 2.0 -It cbr -Il 1000 -If 0 -Ii 25 -Iv 32 -Pn cbr -Pi 24 -Pf 0 -Po 0 
s -t 1.035000000 -Hs 0 -Hd -2 -Ni 0 -Nx 20.00 -Ny 50.00 -Nz 0.00 -Ne -1.000000 -Nl AGT -Nw --- -Ma 0 -Md 0 -Ms 0 -Mt 0 -Is 0.0 -Id 2.0 -It cbr -Il 1000 -If 0 -Ii 26 -Iv 32 -Pn cbr -Pi 25 -Pf 0 -Po 0 
r -t 1.035000000 -Hs 0 -Hd -2 -Ni 0 -Nx 20.00 -Ny 50.00 -Nz 0.00 -Ne -1.000000 -Nl RTR -Nw --- -Ma 0 -Md 0 -Ms 0 -Mt 0 -Is 0.0 -Id 2.0 -It cbr -Il 1000 -If 0 -Ii 26 -Iv 32 -Pn cbr -Pi 25 -Pf 0 -Po 0 
s -t 1.036400000 -Hs 0 -Hd -2 -Ni 0 -Nx 20.00 -Ny 50.00 -Nz 0.00 -Ne -1.000000 -Nl AGT -Nw --- -Ma 0 -Md 0 -Ms 0 -Mt 0 -Is 0.0 -Id 2.0 -It cbr -Il 1000 -If 0 -Ii 27 -Iv 32 -Pn cbr -Pi 26 -Pf 0 -Po 0 
r -t 1.036400000 -Hs 0 -Hd -2 -Ni 0 -Nx 20.00 -Ny 50.00 -Nz 0.00 -Ne -1.000000 -Nl RTR -Nw --- -Ma 0 -Md 0 -Ms 0 -Mt 0 -Is 0.0 -Id 2.0 -It cbr -Il 1000 -If 0 -Ii 27 -Iv 32 -Pn cbr -Pi 26 -Pf 0 -Po 0 
s -t 1.037800000 -Hs 0 -Hd -2 -Ni 0 -Nx 20.00 -Ny 50.00 -Nz 0.00 -Ne -1.000000 -Nl AGT -Nw --- -Ma 0 -Md 0 -Ms 0 -Mt 0 -Is 0.0 -Id 2.0 -It cbr -Il 1000 -If 0 -Ii 28 -Iv 32 -Pn cbr -Pi 27 -Pf 0 -Po 0 
r -t 1.037800000 -Hs 0 -Hd -2 -Ni 0 -Nx 20.00 -Ny 50.00 -Nz 0.00 -Ne -1.000000 -Nl RTR -Nw --- -Ma 0 -Md 0 -Ms 0 -Mt 0 -Is 0.0 -Id 2.0 -It cbr -Il 1000 -If 0 -Ii 28 -Iv 32 -Pn cbr -Pi 27 -Pf 0 -Po 0 
s -t 1.039200000 -Hs 0 -Hd -2 -Ni 0 -Nx 20.00 -Ny 50.00 -Nz 0.00 -Ne -1.000000 -Nl AGT -Nw --- -Ma 0 -Md 0 -Ms 0 -Mt 0 -Is 0.0 -Id 2.0 -It cbr -Il 1000 -If 0 -Ii 29 -Iv 32 -Pn cbr -Pi 28 -Pf 0 -Po 0 
r -t 1.039200000 -Hs 0 -Hd -2 -Ni 0 -Nx 20.00 -Ny 50.00 -Nz 0.00 -Ne -1.000000 -Nl RTR -Nw --- -Ma 0 -Md 0 -Ms 0 -Mt 0 -Is 0.0 -Id 2.0 -It cbr -Il 1000 -If 0 -Ii 29 -Iv 32 -Pn cbr -Pi 28 -Pf 0 -Po 0 
s -t 1.040600000 -Hs 0 -Hd -2 -Ni 0 -Nx 20.00 -Ny 50.00 -Nz 0.00 -Ne -1.000000 -Nl AGT -Nw --- -Ma 0 -Md 0 -Ms 0 -Mt 0 -Is 0.0 -Id 2.0 -It cbr -Il 1000 -If 0 -Ii 30 -Iv 32 -Pn cbr -Pi 29 -Pf 0 -Po 0 
r -t 1.040600000 -Hs 0 -Hd -2 -Ni 0 -Nx 20.00 -Ny 50.00 -Nz 0.00 -Ne -1.000000 -Nl RTR -Nw --- -Ma 0 -Md 0 -Ms 0 -Mt 0 -Is 0.0 -Id 2.0 -It cbr -Il 1000 -If 0 -Ii 30 -Iv 32 -Pn cbr -Pi 29 -Pf 0 -Po 0 
s -t 1.042000000 -Hs 0 -Hd -2 -Ni 0 -Nx 20.00 -Ny 50.00 -Nz 0.00 -Ne -1.000000 -Nl AGT -Nw --- -Ma 0 -Md 0 -Ms 0 -Mt 0 -Is 0.0 -Id 2.0 -It cbr -Il 1000 -If 0 -Ii 31 -Iv 32 -Pn cbr -Pi 30 -Pf 0 -Po 0 
r -t 1.042000000 -Hs 0 -Hd -2 -Ni 0 -Nx 20.00 -Ny 50.00 -Nz 0.00 -Ne -1.000000 -Nl RTR -Nw --- -Ma 0 -Md 0 -Ms 0 -Mt 0 -Is 0.0 -Id 2.0 -It cbr -Il 1000 -If 0 -Ii 31 -Iv 32 -Pn cbr -Pi 30 -Pf 0 -Po 0 
s -t 1.043400000 -Hs 0 -Hd -2 -Ni 0 -Nx 20.00 -Ny 50.00 -Nz 0.00 -Ne -1.000000 -Nl AGT -Nw --- -Ma 0 -Md 0 -Ms 0 -Mt 0 -Is 0.0 -Id 2.0 -It cbr -Il 1000 -If 0 -Ii 32 -Iv 32 -Pn cbr -Pi 31 -Pf 0 -Po 0 
r -t 1.043400000 -Hs 0 -Hd -2 -Ni 0 -Nx 20.00 -Ny 50.00 -Nz 0.00 -Ne -1.000000 -Nl RTR -Nw --- -Ma 0 -Md 0 -Ms 0 -Mt 0 -Is 0.0 -Id 2.0 -It cbr -Il 1000 -If 0 -Ii 32 -Iv 32 -Pn cbr -Pi 31 -Pf 0 -Po 0 
s -t 1.044800000 -Hs 0 -Hd -2 -Ni 0 -Nx 20.00 -Ny 50.00 -Nz 0.00 -Ne -1.000000 -Nl AGT -Nw --- -Ma 0 -Md 0 -Ms 0 -Mt 0 -Is 0.0 -Id 2.0 -It cbr -Il 1000 -If 0 -Ii 33 -Iv 32 -Pn cbr -Pi 32 -Pf 0 -Po 0 
r -t 1.044800000 -Hs 0 -Hd -2 -Ni 0 -Nx 20.00 -Ny 50.00 -Nz 0.00 -Ne -1.000000 -Nl RTR -Nw --- -Ma 0 -Md 0 -Ms 0 -Mt 0 -Is 0.0 -Id 2.0 -It cbr -Il 1000 -If 0 -Ii 33 -Iv 32 -Pn cbr -Pi 32 -Pf 0 -Po 0 
s -t 1.046200000 -Hs 0 -Hd -2 -Ni 0 -Nx 20.00 -Ny 50.00 -Nz 0.00 -Ne -1.000000 -Nl AGT -Nw --- -Ma 0 -Md 0 -Ms 0 -Mt 0 -Is 0.0 -Id 2.0 -It cbr -Il 1000 -If 0 -Ii 34 -Iv 32 -Pn cbr -Pi 33 -Pf 0 -Po 0 
r -t 1.046200000 -Hs 0 -Hd -2 -Ni 0 -Nx 20.00 -Ny 50.00 -Nz 0.00 -Ne -1.000000 -Nl RTR -Nw --- -Ma 0 -Md 0 -Ms 0 -Mt 0 -Is 0.0 -Id 2.0 -It cbr -Il 1000 -If 0 -Ii 34 -Iv 32 -Pn cbr -Pi 33 -Pf 0 -Po 0 
s -t 1.047600000 -Hs 0 -Hd -2 -Ni 0 -Nx 20.00 -Ny 50.00 -Nz 0.00 -Ne -1.000000 -Nl AGT -Nw --- -Ma 0 -Md 0 -Ms 0 -Mt 0 -Is 0.0 -Id 2.0 -It cbr -Il 1000 -If 0 -Ii 35 -Iv 32 -Pn cbr -Pi 34 -Pf 0 -Po 0 
r -t 1.047600000 -Hs 0 -Hd -2 -Ni 0 -Nx 20.00 -Ny 50.00 -Nz 0.00 -Ne -1.000000 -Nl RTR -Nw --- -Ma 0 -Md 0 -Ms 0 -Mt 0 -Is 0.0 -Id 2.0 -It cbr -Il 1000 -If 0 -Ii 35 -Iv 32 -Pn cbr -Pi 34 -Pf 0 -Po 0 
s -t 1.049000000 -Hs 0 -Hd -2 -Ni 0 -Nx 20.00 -Ny 50.00 -Nz 0.00 -Ne -1.000000 -Nl AGT -Nw --- -Ma 0 -Md 0 -Ms 0 -Mt 0 -Is 0.0 -Id 2.0 -It cbr -Il 1000 -If 0 -Ii 36 -Iv 32 -Pn cbr -Pi 35 -Pf 0 -Po 0 
r -t 1.049000000 -Hs 0 -Hd -2 -Ni 0 -Nx 20.00 -Ny 50.00 -Nz 0.00 -Ne -1.000000 -Nl RTR -Nw --- -Ma 0 -Md 0 -Ms 0 -Mt 0 -Is 0.0 -Id 2.0 -It cbr -Il 1000 -If 0 -Ii 36 -Iv 32 -Pn cbr -Pi 35 -Pf 0 -Po 0 
s -t 1.050400000 -Hs 0 -Hd -2 -Ni 0 -Nx 20.00 -Ny 50.00 -Nz 0.00 -Ne -1.000000 -Nl AGT -Nw --- -Ma 0 -Md 0 -Ms 0 -Mt 0 -Is 0.0 -Id 2.0 -It cbr -Il 1000 -If 0 -Ii 37 -Iv 32 -Pn cbr -Pi 36 -Pf 0 -Po 0 
r -t 1.050400000 -Hs 0 -Hd -2 -Ni 0 -Nx 20.00 -Ny 50.00 -Nz 0.00 -Ne -1.000000 -Nl RTR -Nw --- -Ma 0 -Md 0 -Ms 0 -Mt 0 -Is 0.0 -Id 2.0 -It cbr -Il 1000 -If 0 -Ii 37 -Iv 32 -Pn cbr -Pi 36 -Pf 0 -Po 0 
s -t 1.051800000 -Hs 0 -Hd -2 -Ni 0 -Nx 20.00 -Ny 50.00 -Nz 0.00 -Ne -1.000000 -Nl AGT -Nw --- -Ma 0 -Md 0 -Ms 0 -Mt 0 -Is 0.0 -Id 2.0 -It cbr -Il 1000 -If 0 -Ii 38 -Iv 32 -Pn cbr -Pi 37 -Pf 0 -Po 0 
r -t 1.051800000 -Hs 0 -Hd -2 -Ni 0 -Nx 20.00 -Ny 50.00 -Nz 0.00 -Ne -1.000000 -Nl RTR -Nw --- -Ma 0 -Md 0 -Ms 0 -Mt 0 -Is 0.0 -Id 2.0 -It cbr -Il 1000 -If 0 -Ii 38 -Iv 32 -Pn cbr -Pi 37 -Pf 0 -Po 0 
s -t 1.053200000 -Hs 0 -Hd -2 -Ni 0 -Nx 20.00 -Ny 50.00 -Nz 0.00 -Ne -1.000000 -Nl AGT -Nw --- -Ma 0 -Md 0 -Ms 0 -Mt 0 -Is 0.0 -Id 2.0 -It cbr -Il 1000 -If 0 -Ii 39 -Iv 32 -Pn cbr -Pi 38 -Pf 0 -Po 0 
r -t 1.053200000 -Hs 0 -Hd -2 -Ni 0 -Nx 20.00 -Ny 50.00 -Nz 0.00 -Ne -1.000000 -Nl RTR -Nw --- -Ma 0 -Md 0 -Ms 0 -Mt 0 -Is 0.0 -Id 2.0 -It cbr -Il 1000 -If 0 -Ii 39 -Iv 32 -Pn cbr -Pi 38 -Pf 0 -Po 0 
s -t 1.054600000 -Hs 0 -Hd -2 -Ni 0 -Nx 20.00 -Ny 50.00 -Nz 0.00 -Ne -1.000000 -Nl AGT -Nw --- -Ma 0 -Md 0 -Ms 0 -Mt 0 -Is 0.0 -Id 2.0 -It cbr -Il 1000 -If 0 -Ii 40 -Iv 32 -Pn cbr -Pi 39 -Pf 0 -Po 0 
r -t 1.054600000 -Hs 0 -Hd -2 -Ni 0 -Nx 20.00 -Ny 50.00 -Nz 0.00 -Ne -1.000000 -Nl RTR -Nw --- -Ma 0 -Md 0 -Ms 0 -Mt 0 -Is 0.0 -Id 2.0 -It cbr -Il 1000 -If 0 -Ii 40 -Iv 32 -Pn cbr -Pi 39 -Pf 0 -Po 0 
s -t 1.056000000 -Hs 0 -Hd -2 -Ni 0 -Nx 20.00 -Ny 50.00 -Nz 0.00 -Ne -1.000000 -Nl AGT -Nw --- -Ma 0 -Md 0 -Ms 0 -Mt 0 -Is 0.0 -Id 2.0 -It cbr -Il 1000 -If 0 -Ii 41 -Iv 32 -Pn cbr -Pi 40 -Pf 0 -Po 0 
r -t 1.056000000 -Hs 0 -Hd -2 -Ni 0 -Nx 20.00 -Ny 50.00 -Nz 0.00 -Ne -1.000000 -Nl RTR -Nw --- -Ma 0 -Md 0 -Ms 0 -Mt 0 -Is 0.0 -Id 2.0 -It cbr -Il 1000 -If 0 -Ii 41 -Iv 32 -Pn cbr -Pi 40 -Pf 0 -Po 0 
s -t 1.057400000 -Hs 0 -Hd -2 -Ni 0 -Nx 20.00 -Ny 50.00 -Nz 0.00 -Ne -1.000000 -Nl AGT -Nw --- -Ma 0 -Md 0 -Ms 0 -Mt 0 -Is 0.0 -Id 2.0 -It cbr -Il 1000 -If 0 -Ii 42 -Iv 32 -Pn cbr -Pi 41 -Pf 0 -Po 0 
r -t 1.057400000 -Hs 0 -Hd -2 -Ni 0 -Nx 20.00 -Ny 50.00 -Nz 0.00 -Ne -1.000000 -Nl RTR -Nw --- -Ma 0 -Md 0 -Ms 0 -Mt 0 -Is 0.0 -Id 2.0 -It cbr -Il 1000 -If 0 -Ii 42 -Iv 32 -Pn cbr -Pi 41 -Pf 0 -Po 0 
s -t 1.058800000 -Hs 0 -Hd -2 -Ni 0 -Nx 20.00 -Ny 50.00 -Nz 0.00 -Ne -1.000000 -Nl AGT -Nw --- -Ma 0 -Md 0 -Ms 0 -Mt 0 -Is 0.0 -Id 2.0 -It cbr -Il 1000 -If 0 -Ii 43 -Iv 32 -Pn cbr -Pi 42 -Pf 0 -Po 0 
r -t 1.058800000 -Hs 0 -Hd -2 -Ni 0 -Nx 20.00 -Ny 50.00 -Nz 0.00 -Ne -1.000000 -Nl RTR -Nw --- -Ma 0 -Md 0 -Ms 0 -Mt 0 -Is 0.0 -Id 2.0 -It cbr -Il 1000 -If 0 -Ii 43 -Iv 32 -Pn cbr -Pi 42 -Pf 0 -Po 0 
s -t 1.060200000 -Hs 0 -Hd -2 -Ni 0 -Nx 20.00 -Ny 50.00 -Nz 0.00 -Ne -1.000000 -Nl AGT -Nw --- -Ma 0 -Md 0 -Ms 0 -Mt 0 -Is 0.0 -Id 2.0 -It cbr -Il 1000 -If 0 -Ii 44 -Iv 32 -Pn cbr -Pi 43 -Pf 0 -Po 0 
r -t 1.060200000 -Hs 0 -Hd -2 -Ni 0 -Nx 20.00 -Ny 50.00 -Nz 0.00 -Ne -1.000000 -Nl RTR -Nw --- -Ma 0 -Md 0 -Ms 0 -Mt 0 -Is 0.0 -Id 2.0 -It cbr -Il 1000 -If 0 -Ii 44 -Iv 32 -Pn cbr -Pi 43 -Pf 0 -Po 0 
s -t 1.061600000 -Hs 0 -Hd -2 -Ni 0 -Nx 20.00 -Ny 50.00 -Nz 0.00 -Ne -1.000000 -Nl AGT -Nw --- -Ma 0 -Md 0 -Ms 0 -Mt 0 -Is 0.0 -Id 2.0 -It cbr -Il 1000 -If 0 -Ii 45 -Iv 32 -Pn cbr -Pi 44 -Pf 0 -Po 0 
r -t 1.061600000 -Hs 0 -Hd -2 -Ni 0 -Nx 20.00 -Ny 50.00 -Nz 0.00 -Ne -1.000000 -Nl RTR -Nw --- -Ma 0 -Md 0 -Ms 0 -Mt 0 -Is 0.0 -Id 2.0 -It cbr -Il 1000 -If 0 -Ii 45 -Iv 32 -Pn cbr -Pi 44 -Pf 0 -Po 0 
s -t 1.063000000 -Hs 0 -Hd -2 -Ni 0 -Nx 20.00 -Ny 50.00 -Nz 0.00 -Ne -1.000000 -Nl AGT -Nw --- -Ma 0 -Md 0 -Ms 0 -Mt 0 -Is 0.0 -Id 2.0 -It cbr -Il 1000 -If 0 -Ii 46 -Iv 32 -Pn cbr -Pi 45 -Pf 0 -Po 0 
r -t 1.063000000 -Hs 0 -Hd -2 -Ni 0 -Nx 20.00 -Ny 50.00 -Nz 0.00 -Ne -1.000000 -Nl RTR -Nw --- -Ma 0 -Md 0 -Ms 0 -Mt 0 -Is 0.0 -Id 2.0 -It cbr -Il 1000 -If 0 -Ii 46 -Iv 32 -Pn cbr -Pi 45 -Pf 0 -Po 0 
s -t 1.064400000 -Hs 0 -Hd -2 -Ni 0 -Nx 20.00 -Ny 50.00 -Nz 0.00 -Ne -1.000000 -Nl AGT -Nw --- -Ma 0 -Md 0 -Ms 0 -Mt 0 -Is 0.0 -Id 2.0 -It cbr -Il 1000 -If 0 -Ii 47 -Iv 32 -Pn cbr -Pi 46 -Pf 0 -Po 0 
r -t 1.064400000 -Hs 0 -Hd -2 -Ni 0 -Nx 20.00 -Ny 50.00 -Nz 0.00 -Ne -1.000000 -Nl RTR -Nw --- -Ma 0 -Md 0 -Ms 0 -Mt 0 -Is 0.0 -Id 2.0 -It cbr -Il 1000 -If 0 -Ii 47 -Iv 32 -Pn cbr -Pi 46 -Pf 0 -Po 0 
s -t 1.065800000 -Hs 0 -Hd -2 -Ni 0 -Nx 20.00 -Ny 50.00 -Nz 0.00 -Ne -1.000000 -Nl AGT -Nw --- -Ma 0 -Md 0 -Ms 0 -Mt 0 -Is 0.0 -Id 2.0 -It cbr -Il 1000 -If 0 -Ii 48 -Iv 32 -Pn cbr -Pi 47 -Pf 0 -Po 0 
r -t 1.065800000 -Hs 0 -Hd -2 -Ni 0 -Nx 20.00 -Ny 50.00 -Nz 0.00 -Ne -1.000000 -Nl RTR -Nw --- -Ma 0 -Md 0 -Ms 0 -Mt 0 -Is 0.0 -Id 2.0 -It cbr -Il 1000 -If 0 -Ii 48 -Iv 32 -Pn cbr -Pi 47 -Pf 0 -Po 0 
s -t 1.067200000 -Hs 0 -Hd -2 -Ni 0 -Nx 20.00 -Ny 50.00 -Nz 0.00 -Ne -1.000000 -Nl AGT -Nw --- -Ma 0 -Md 0 -Ms 0 -Mt 0 -Is 0.0 -Id 2.0 -It cbr -Il 1000 -If 0 -Ii 49 -Iv 32 -Pn cbr -Pi 48 -Pf 0 -Po 0 
r -t 1.067200000 -Hs 0 -Hd -2 -Ni 0 -Nx 20.00 -Ny 50.00 -Nz 0.00 -Ne -1.000000 -Nl RTR -Nw --- -Ma 0 -Md 0 -Ms 0 -Mt 0 -Is 0.0 -Id 2.0 -It cbr -Il 1000 -If 0 -Ii 49 -Iv 32 -Pn cbr -Pi 48 -Pf 0 -Po 0 
s -t 1.068600000 -Hs 0 -Hd -2 -Ni 0 -Nx 20.00 -Ny 50.00 -Nz 0.00 -Ne -1.000000 -Nl AGT -Nw --- -Ma 0 -Md 0 -Ms 0 -Mt 0 -Is 0.0 -Id 2.0 -It cbr -Il 1000 -If 0 -Ii 50 -Iv 32 -Pn cbr -Pi 49 -Pf 0 -Po 0 
r -t 1.068600000 -Hs 0 -Hd -2 -Ni 0 -Nx 20.00 -Ny 50.00 -Nz 0.00 -Ne -1.000000 -Nl RTR -Nw --- -Ma 0 -Md 0 -Ms 0 -Mt 0 -Is 0.0 -Id 2.0 -It cbr -Il 1000 -If 0 -Ii 50 -Iv 32 -Pn cbr -Pi 49 -Pf 0 -Po 0 
s -t 1.070000000 -Hs 0 -Hd -2 -Ni 0 -Nx 20.00 -Ny 50.00 -Nz 0.00 -Ne -1.000000 -Nl AGT -Nw --- -Ma 0 -Md 0 -Ms 0 -Mt 0 -Is 0.0 -Id 2.0 -It cbr -Il 1000 -If 0 -Ii 51 -Iv 32 -Pn cbr -Pi 50 -Pf 0 -Po 0 
r -t 1.070000000 -Hs 0 -Hd -2 -Ni 0 -Nx 20.00 -Ny 50.00 -Nz 0.00 -Ne -1.000000 -Nl RTR -Nw --- -Ma 0 -Md 0 -Ms 0 -Mt 0 -Is 0.0 -Id 2.0 -It cbr -Il 1000 -If 0 -Ii 51 -Iv 32 -Pn cbr -Pi 50 -Pf 0 -Po 0 
s -t 1.071400000 -Hs 0 -Hd -2 -Ni 0 -Nx 20.00 -Ny 50.00 -Nz 0.00 -Ne -1.000000 -Nl AGT -Nw --- -Ma 0 -Md 0 -Ms 0 -Mt 0 -Is 0.0 -Id 2.0 -It cbr -Il 1000 -If 0 -Ii 52 -Iv 32 -Pn cbr -Pi 51 -Pf 0 -Po 0 
r -t 1.071400000 -Hs 0 -Hd -2 -Ni 0 -Nx 20.00 -Ny 50.00 -Nz 0.00 -Ne -1.000000 -Nl RTR -Nw --- -Ma 0 -Md 0 -Ms 0 -Mt 0 -Is 0.0 -Id 2.0 -It cbr -Il 1000 -If 0 -Ii 52 -Iv 32 -Pn cbr -Pi 51 -Pf 0 -Po 0 
s -t 1.072800000 -Hs 0 -Hd -2 -Ni 0 -Nx 20.00 -Ny 50.00 -Nz 0.00 -Ne -1.000000 -Nl AGT -Nw --- -Ma 0 -Md 0 -Ms 0 -Mt 0 -Is 0.0 -Id 2.0 -It cbr -Il 1000 -If 0 -Ii 53 -Iv 32 -Pn cbr -Pi 52 -Pf 0 -Po 0 
r -t 1.072800000 -Hs 0 -Hd -2 -Ni 0 -Nx 20.00 -Ny 50.00 -Nz 0.00 -Ne -1.000000 -Nl RTR -Nw --- -Ma 0 -Md 0 -Ms 0 -Mt 0 -Is 0.0 -Id 2.0 -It cbr -Il 1000 -If 0 -Ii 53 -Iv 32 -Pn cbr -Pi 52 -Pf 0 -Po 0 
s -t 1.074200000 -Hs 0 -Hd -2 -Ni 0 -Nx 20.00 -Ny 50.00 -Nz 0.00 -Ne -1.000000 -Nl AGT -Nw --- -Ma 0 -Md 0 -Ms 0 -Mt 0 -Is 0.0 -Id 2.0 -It cbr -Il 1000 -If 0 -Ii 54 -Iv 32 -Pn cbr -Pi 53 -Pf 0 -Po 0 
r -t 1.074200000 -Hs 0 -Hd -2 -Ni 0 -Nx 20.00 -Ny 50.00 -Nz 0.00 -Ne -1.000000 -Nl RTR -Nw --- -Ma 0 -Md 0 -Ms 0 -Mt 0 -Is 0.0 -Id 2.0 -It cbr -Il 1000 -If 0 -Ii 54 -Iv 32 -Pn cbr -Pi 53 -Pf 0 -Po 0 
s -t 1.075600000 -Hs 0 -Hd -2 -Ni 0 -Nx 20.00 -Ny 50.00 -Nz 0.00 -Ne -1.000000 -Nl AGT -Nw --- -Ma 0 -Md 0 -Ms 0 -Mt 0 -Is 0.0 -Id 2.0 -It cbr -Il 1000 -If 0 -Ii 55 -Iv 32 -Pn cbr -Pi 54 -Pf 0 -Po 0 
r -t 1.075600000 -Hs 0 -Hd -2 -Ni 0 -Nx 20.00 -Ny 50.00 -Nz 0.00 -Ne -1.000000 -Nl RTR -Nw --- -Ma 0 -Md 0 -Ms 0 -Mt 0 -Is 0.0 -Id 2.0 -It cbr -Il 1000 -If 0 -Ii 55 -Iv 32 -Pn cbr -Pi 54 -Pf 0 -Po 0 
s -t 1.077000000 -Hs 0 -Hd -2 -Ni 0 -Nx 20.00 -Ny 50.00 -Nz 0.00 -Ne -1.000000 -Nl AGT -Nw --- -Ma 0 -Md 0 -Ms 0 -Mt 0 -Is 0.0 -Id 2.0 -It cbr -Il 1000 -If 0 -Ii 56 -Iv 32 -Pn cbr -Pi 55 -Pf 0 -Po 0 
r -t 1.077000000 -Hs 0 -Hd -2 -Ni 0 -Nx 20.00 -Ny 50.00 -Nz 0.00 -Ne -1.000000 -Nl RTR -Nw --- -Ma 0 -Md 0 -Ms 0 -Mt 0 -Is 0.0 -Id 2.0 -It cbr -Il 1000 -If 0 -Ii 56 -Iv 32 -Pn cbr -Pi 55 -Pf 0 -Po 0 
s -t 1.078400000 -Hs 0 -Hd -2 -Ni 0 -Nx 20.00 -Ny 50.00 -Nz 0.00 -Ne -1.000000 -Nl AGT -Nw --- -Ma 0 -Md 0 -Ms 0 -Mt 0 -Is 0.0 -Id 2.0 -It cbr -Il 1000 -If 0 -Ii 57 -Iv 32 -Pn cbr -Pi 56 -Pf 0 -Po 0 
r -t 1.078400000 -Hs 0 -Hd -2 -Ni 0 -Nx 20.00 -Ny 50.00 -Nz 0.00 -Ne -1.000000 -Nl RTR -Nw --- -Ma 0 -Md 0 -Ms 0 -Mt 0 -Is 0.0 -Id 2.0 -It cbr -Il 1000 -If 0 -Ii 57 -Iv 32 -Pn cbr -Pi 56 -Pf 0 -Po 0 
s -t 1.079800000 -Hs 0 -Hd -2 -Ni 0 -Nx 20.00 -Ny 50.00 -Nz 0.00 -Ne -1.000000 -Nl AGT -Nw --- -Ma 0 -Md 0 -Ms 0 -Mt 0 -Is 0.0 -Id 2.0 -It cbr -Il 1000 -If 0 -Ii 58 -Iv 32 -Pn cbr -Pi 57 -Pf 0 -Po 0 
r -t 1.079800000 -Hs 0 -Hd -2 -Ni 0 -Nx 20.00 -Ny 50.00 -Nz 0.00 -Ne -1.000000 -Nl RTR -Nw --- -Ma 0 -Md 0 -Ms 0 -Mt 0 -Is 0.0 -Id 2.0 -It cbr -Il 1000 -If 0 -Ii 58 -Iv 32 -Pn cbr -Pi 57 -Pf 0 -Po 0 
s -t 1.081200000 -Hs 0 -Hd -2 -Ni 0 -Nx 20.00 -Ny 50.00 -Nz 0.00 -Ne -1.000000 -Nl AGT -Nw --- -Ma 0 -Md 0 -Ms 0 -Mt 0 -Is 0.0 -Id 2.0 -It cbr -Il 1000 -If 0 -Ii 59 -Iv 32 -Pn cbr -Pi 58 -Pf 0 -Po 0 
r -t 1.081200000 -Hs 0 -Hd -2 -Ni 0 -Nx 20.00 -Ny 50.00 -Nz 0.00 -Ne -1.000000 -Nl RTR -Nw --- -Ma 0 -Md 0 -Ms 0 -Mt 0 -Is 0.0 -Id 2.0 -It cbr -Il 1000 -If 0 -Ii 59 -Iv 32 -Pn cbr -Pi 58 -Pf 0 -Po 0 
s -t 1.082600000 -Hs 0 -Hd -2 -Ni 0 -Nx 20.00 -Ny 50.00 -Nz 0.00 -Ne -1.000000 -Nl AGT -Nw --- -Ma 0 -Md 0 -Ms 0 -Mt 0 -Is 0.0 -Id 2.0 -It cbr -Il 1000 -If 0 -Ii 60 -Iv 32 -Pn cbr -Pi 59 -Pf 0 -Po 0 
r -t 1.082600000 -Hs 0 -Hd -2 -Ni 0 -Nx 20.00 -Ny 50.00 -Nz 0.00 -Ne -1.000000 -Nl RTR -Nw --- -Ma 0 -Md 0 -Ms 0 -Mt 0 -Is 0.0 -Id 2.0 -It cbr -Il 1000 -If 0 -Ii 60 -Iv 32 -Pn cbr -Pi 59 -Pf 0 -Po 0 
s -t 1.084000000 -Hs 0 -Hd -2 -Ni 0 -Nx 20.00 -Ny 50.00 -Nz 0.00 -Ne -1.000000 -Nl AGT -Nw --- -Ma 0 -Md 0 -Ms 0 -Mt 0 -Is 0.0 -Id 2.0 -It cbr -Il 1000 -If 0 -Ii 61 -Iv 32 -Pn cbr -Pi 60 -Pf 0 -Po 0 
r -t 1.084000000 -Hs 0 -Hd -2 -Ni 0 -Nx 20.00 -Ny 50.00 -Nz 0.00 -Ne -1.000000 -Nl RTR -Nw --- -Ma 0 -Md 0 -Ms 0 -Mt 0 -Is 0.0 -Id 2.0 -It cbr -Il 1000 -If 0 -Ii 61 -Iv 32 -Pn cbr -Pi 60 -Pf 0 -Po 0 
s -t 1.085400000 -Hs 0 -Hd -2 -Ni 0 -Nx 20.00 -Ny 50.00 -Nz 0.00 -Ne -1.000000 -Nl AGT -Nw --- -Ma 0 -Md 0 -Ms 0 -Mt 0 -Is 0.0 -Id 2.0 -It cbr -Il 1000 -If 0 -Ii 62 -Iv 32 -Pn cbr -Pi 61 -Pf 0 -Po 0 
r -t 1.085400000 -Hs 0 -Hd -2 -Ni 0 -Nx 20.00 -Ny 50.00 -Nz 0.00 -Ne -1.000000 -Nl RTR -Nw --- -Ma 0 -Md 0 -Ms 0 -Mt 0 -Is 0.0 -Id 2.0 -It cbr -Il 1000 -If 0 -Ii 62 -Iv 32 -Pn cbr -Pi 61 -Pf 0 -Po 0 
s -t 1.086800000 -Hs 0 -Hd -2 -Ni 0 -Nx 20.00 -Ny 50.00 -Nz 0.00 -Ne -1.000000 -Nl AGT -Nw --- -Ma 0 -Md 0 -Ms 0 -Mt 0 -Is 0.0 -Id 2.0 -It cbr -Il 1000 -If 0 -Ii 63 -Iv 32 -Pn cbr -Pi 62 -Pf 0 -Po 0 
r -t 1.086800000 -Hs 0 -Hd -2 -Ni 0 -Nx 20.00 -Ny 50.00 -Nz 0.00 -Ne -1.000000 -Nl RTR -Nw --- -Ma 0 -Md 0 -Ms 0 -Mt 0 -Is 0.0 -Id 2.0 -It cbr -Il 1000 -If 0 -Ii 63 -Iv 32 -Pn cbr -Pi 62 -Pf 0 -Po 0 
s -t 1.088200000 -Hs 0 -Hd -2 -Ni 0 -Nx 20.00 -Ny 50.00 -Nz 0.00 -Ne -1.000000 -Nl AGT -Nw --- -Ma 0 -Md 0 -Ms 0 -Mt 0 -Is 0.0 -Id 2.0 -It cbr -Il 1000 -If 0 -Ii 64 -Iv 32 -Pn cbr -Pi 63 -Pf 0 -Po 0 
r -t 1.088200000 -Hs 0 -Hd -2 -Ni 0 -Nx 20.00 -Ny 50.00 -Nz 0.00 -Ne -1.000000 -Nl RTR -Nw --- -Ma 0 -Md 0 -Ms 0 -Mt 0 -Is 0.0 -Id 2.0 -It cbr -Il 1000 -If 0 -Ii 64 -Iv 32 -Pn cbr -Pi 63 -Pf 0 -Po 0 
s -t 1.089600000 -Hs 0 -Hd -2 -Ni 0 -Nx 20.00 -Ny 50.00 -Nz 0.00 -Ne -1.000000 -Nl AGT -Nw --- -Ma 0 -Md 0 -Ms 0 -Mt 0 -Is 0.0 -Id 2.0 -It cbr -Il 1000 -If 0 -Ii 65 -Iv 32 -Pn cbr -Pi 64 -Pf 0 -Po 0 
r -t 1.089600000 -Hs 0 -Hd -2 -Ni 0 -Nx 20.00 -Ny 50.00 -Nz 0.00 -Ne -1.000000 -Nl RTR -Nw --- -Ma 0 -Md 0 -Ms 0 -Mt 0 -Is 0.0 -Id 2.0 -It cbr -Il 1000 -If 0 -Ii 65 -Iv 32 -Pn cbr -Pi 64 -Pf 0 -Po 0 
s -t 1.091000000 -Hs 0 -Hd -2 -Ni 0 -Nx 20.00 -Ny 50.00 -Nz 0.00 -Ne -1.000000 -Nl AGT -Nw --- -Ma 0 -Md 0 -Ms 0 -Mt 0 -Is 0.0 -Id 2.0 -It cbr -Il 1000 -If 0 -Ii 66 -Iv 32 -Pn cbr -Pi 65 -Pf 0 -Po 0 
r -t 1.091000000 -Hs 0 -Hd -2 -Ni 0 -Nx 20.00 -Ny 50.00 -Nz 0.00 -Ne -1.000000 -Nl RTR -Nw --- -Ma 0 -Md 0 -Ms 0 -Mt 0 -Is 0.0 -Id 2.0 -It cbr -Il 1000 -If 0 -Ii 66 -Iv 32 -Pn cbr -Pi 65 -Pf 0 -Po 0 
s -t 1.092400000 -Hs 0 -Hd -2 -Ni 0 -Nx 20.00 -Ny 50.00 -Nz 0.00 -Ne -1.000000 -Nl AGT -Nw --- -Ma 0 -Md 0 -Ms 0 -Mt 0 -Is 0.0 -Id 2.0 -It cbr -Il 1000 -If 0 -Ii 67 -Iv 32 -Pn cbr -Pi 66 -Pf 0 -Po 0 
r -t 1.092400000 -Hs 0 -Hd -2 -Ni 0 -Nx 20.00 -Ny 50.00 -Nz 0.00 -Ne -1.000000 -Nl RTR -Nw --- -Ma 0 -Md 0 -Ms 0 -Mt 0 -Is 0.0 -Id 2.0 -It cbr -Il 1000 -If 0 -Ii 67 -Iv 32 -Pn cbr -Pi 66 -Pf 0 -Po 0 
s -t 1.093800000 -Hs 0 -Hd -2 -Ni 0 -Nx 20.00 -Ny 50.00 -Nz 0.00 -Ne -1.000000 -Nl AGT -Nw --- -Ma 0 -Md 0 -Ms 0 -Mt 0 -Is 0.0 -Id 2.0 -It cbr -Il 1000 -If 0 -Ii 68 -Iv 32 -Pn cbr -Pi 67 -Pf 0 -Po 0 
r -t 1.093800000 -Hs 0 -Hd -2 -Ni 0 -Nx 20.00 -Ny 50.00 -Nz 0.00 -Ne -1.000000 -Nl RTR -Nw --- -Ma 0 -Md 0 -Ms 0 -Mt 0 -Is 0.0 -Id 2.0 -It cbr -Il 1000 -If 0 -Ii 68 -Iv 32 -Pn cbr -Pi 67 -Pf 0 -Po 0 
s -t 1.095200000 -Hs 0 -Hd -2 -Ni 0 -Nx 20.00 -Ny 50.00 -Nz 0.00 -Ne -1.000000 -Nl AGT -Nw --- -Ma 0 -Md 0 -Ms 0 -Mt 0 -Is 0.0 -Id 2.0 -It cbr -Il 1000 -If 0 -Ii 69 -Iv 32 -Pn cbr -Pi 68 -Pf 0 -Po 0 
r -t 1.095200000 -Hs 0 -Hd -2 -Ni 0 -Nx 20.00 -Ny 50.00 -Nz 0.00 -Ne -1.000000 -Nl RTR -Nw --- -Ma 0 -Md 0 -Ms 0 -Mt 0 -Is 0.0 -Id 2.0 -It cbr -Il 1000 -If 0 -Ii 69 -Iv 32 -Pn cbr -Pi 68 -Pf 0 -Po 0 
s -t 1.096600000 -Hs 0 -Hd -2 -Ni 0 -Nx 20.00 -Ny 50.00 -Nz 0.00 -Ne -1.000000 -Nl AGT -Nw --- -Ma 0 -Md 0 -Ms 0 -Mt 0 -Is 0.0 -Id 2.0 -It cbr -Il 1000 -If 0 -Ii 70 -Iv 32 -Pn cbr -Pi 69 -Pf 0 -Po 0 
r -t 1.096600000 -Hs 0 -Hd -2 -Ni 0 -Nx 20.00 -Ny 50.00 -Nz 0.00 -Ne -1.000000 -Nl RTR -Nw --- -Ma 0 -Md 0 -Ms 0 -Mt 0 -Is 0.0 -Id 2.0 -It cbr -Il 1000 -If 0 -Ii 70 -Iv 32 -Pn cbr -Pi 69 -Pf 0 -Po 0 
s -t 1.098000000 -Hs 0 -Hd -2 -Ni 0 -Nx 20.00 -Ny 50.00 -Nz 0.00 -Ne -1.000000 -Nl AGT -Nw --- -Ma 0 -Md 0 -Ms 0 -Mt 0 -Is 0.0 -Id 2.0 -It cbr -Il 1000 -If 0 -Ii 71 -Iv 32 -Pn cbr -Pi 70 -Pf 0 -Po 0 
r -t 1.098000000 -Hs 0 -Hd -2 -Ni 0 -Nx 20.00 -Ny 50.00 -Nz 0.00 -Ne -1.000000 -Nl RTR -Nw --- -Ma 0 -Md 0 -Ms 0 -Mt 0 -Is 0.0 -Id 2.0 -It cbr -Il 1000 -If 0 -Ii 71 -Iv 32 -Pn cbr -Pi 70 -Pf 0 -Po 0 