n -t * -s 0  -x 20 -y 50 -Z 0 -z 40  -v circle -c black
n -t * -s 1  -x 270 -y 50 -Z 0 -z 40  -v circle -c black
n -t * -s 2  -x 520 -y 50 -Z 0 -z 40  -v circle -c black
n -t * -s 3  -x 770 -y 50 -Z 0 -z 40  -v circle -c black
n -t * -s 4  -x 800 -y 50 -Z 0 -z 40  -v circle -c black
n -t * -s 5  -x 500 -y 50 -Z 0 -z 40  -v circle -c black
V -t * -v 1.0a5 -a 0
W -t * -x 1000 -y 1000
A -t * -n 1 -p 0 -o 0x7fffffff -c 30 -a 1
A -t * -h 1 -m 1073741823 -s 0
+ -t 1.000000000 -s 0 -d -1 -p cbr -e 1000 -c 2 -a 0 -i 0 -k AGT 
- -t 1.000000000 -s 0 -d -1 -p cbr -e 1000 -c 2 -a 0 -i 0 -k AGT
h -t 1.000000000 -s 0 -d -1 -p cbr -e 1000 -c 2 -a 0 -i 0 -k AGT
+ -t 1.000006792 -s 0 -d 0 -p AODVUU -e 44 -c 2 -a 0 -i 1 -k RTR 
- -t 1.000006792 -s 0 -d 0 -p AODVUU -e 44 -c 2 -a 0 -i 1 -k RTR
h -t 1.000006792 -s 0 -d 0 -p AODVUU -e 44 -c 2 -a 0 -i 1 -k RTR
+ -t 1.000006792 -s 0 -d 0 -p AODVUU -e 44 -c 2 -a 0 -i 1 -k RTR 
- -t 1.000006792 -s 0 -d 0 -p AODVUU -e 44 -c 2 -a 0 -i 1 -k RTR
h -t 1.000006792 -s 0 -d 0 -p AODVUU -e 44 -c 2 -a 0 -i 1 -k RTR
+ -t 1.000006792 -s 0 -d 0 -p AODVUU -e 44 -c 2 -a 0 -i 1 -k RTR 
- -t 1.000006792 -s 0 -d 0 -p AODVUU -e 44 -c 2 -a 0 -i 1 -k RTR
h -t 1.000006792 -s 0 -d 0 -p AODVUU -e 44 -c 2 -a 0 -i 1 -k RTR
+ -t 1.001400000 -s 0 -d -1 -p cbr -e 1000 -c 2 -a 0 -i 2 -k AGT 
- -t 1.001400000 -s 0 -d -1 -p cbr -e 1000 -c 2 -a 0 -i 2 -k AGT
h -t 1.001400000 -s 0 -d -1 -p cbr -e 1000 -c 2 -a 0 -i 2 -k AGT
r -t 1.001553433 -s 1 -d 0 -p AODVUU -e 44 -c 2 -a 0 -i 1 -k RTR
r -t 1.001813433 -s 1 -d 0 -p AODVUU -e 44 -c 2 -a 0 -i 1 -k RTR
r -t 1.002073433 -s 1 -d 0 -p AODVUU -e 44 -c 2 -a 0 -i 1 -k RTR
+ -t 1.002800000 -s 0 -d -1 -p cbr -e 1000 -c 2 -a 0 -i 3 -k AGT 
- -t 1.002800000 -s 0 -d -1 -p cbr -e 1000 -c 2 -a 0 -i 3 -k AGT
h -t 1.002800000 -s 0 -d -1 -p cbr -e 1000 -c 2 -a 0 -i 3 -k AGT
+ -t 1.004200000 -s 0 -d -1 -p cbr -e 1000 -c 2 -a 0 -i 4 -k AGT 
- -t 1.004200000 -s 0 -d -1 -p cbr -e 1000 -c 2 -a 0 -i 4 -k AGT
h -t 1.004200000 -s 0 -d -1 -p cbr -e 1000 -c 2 -a 0 -i 4 -k AGT
+ -t 1.005600000 -s 0 -d -1 -p cbr -e 1000 -c 2 -a 0 -i 5 -k AGT 
- -t 1.005600000 -s 0 -d -1 -p cbr -e 1000 -c 2 -a 0 -i 5 -k AGT
h -t 1.005600000 -s 0 -d -1 -p cbr -e 1000 -c 2 -a 0 -i 5 -k AGT
+ -t 1.007000000 -s 0 -d -1 -p cbr -e 1000 -c 2 -a 0 -i 6 -k AGT 
- -t 1.007000000 -s 0 -d -1 -p cbr -e 1000 -c 2 -a 0 -i 6 -k AGT
h -t 1.007000000 -s 0 -d -1 -p cbr -e 1000 -c 2 -a 0 -i 6 -k AGT
+ -t 1.008400000 -s 0 -d -1 -p cbr -e 1000 -c 2 -a 0 -i 7 -k AGT 
- -t 1.008400000 -s 0 -d -1 -p cbr -e 1000 -c 2 -a 0 -i 7 -k AGT
h -t 1.008400000 -s 0 -d -1 -p cbr -e 1000 -c 2 -a 0 -i 7 -k AGT
+ -t 1.009800000 -s 0 -d -1 -p cbr -e 1000 -c 2 -a 0 -i 8 -k AGT 
- -t 1.009800000 -s 0 -d -1 -p cbr -e 1000 -c 2 -a 0 -i 8 -k AGT
h -t 1.009800000 -s 0 -d -1 -p cbr -e 1000 -c 2 -a 0 -i 8 -k AGT
+ -t 1.011200000 -s 0 -d -1 -p cbr -e 1000 -c 2 -a 0 -i 9 -k AGT 
- -t 1.011200000 -s 0 -d -1 -p cbr -e 1000 -c 2 -a 0 -i 9 -k AGT
h -t 1.011200000 -s 0 -d -1 -p cbr -e 1000 -c 2 -a 0 -i 9 -k AGT
+ -t 1.012600000 -s 0 -d -1 -p cbr -e 1000 -c 2 -a 0 -i 10 -k AGT 
- -t 1.012600000 -s 0 -d -1 -p cbr -e 1000 -c 2 -a 0 -i 10 -k AGT
h -t 1.012600000 -s 0 -d -1 -p cbr -e 1000 -c 2 -a 0 -i 10 -k AGT
+ -t 1.014000000 -s 0 -d -1 -p cbr -e 1000 -c 2 -a 0 -i 11 -k AGT 
- -t 1.014000000 -s 0 -d -1 -p cbr -e 1000 -c 2 -a 0 -i 11 -k AGT
h -t 1.014000000 -s 0 -d -1 -p cbr -e 1000 -c 2 -a 0 -i 11 -k AGT
+ -t 1.015400000 -s 0 -d -1 -p cbr -e 1000 -c 2 -a 0 -i 12 -k AGT 
- -t 1.015400000 -s 0 -d -1 -p cbr -e 1000 -c 2 -a 0 -i 12 -k AGT
h -t 1.015400000 -s 0 -d -1 -p cbr -e 1000 -c 2 -a 0 -i 12 -k AGT
+ -t 1.016800000 -s 0 -d -1 -p cbr -e 1000 -c 2 -a 0 -i 13 -k AGT 
- -t 1.016800000 -s 0 -d -1 -p cbr -e 1000 -c 2 -a 0 -i 13 -k AGT
h -t 1.016800000 -s 0 -d -1 -p cbr -e 1000 -c 2 -a 0 -i 13 -k AGT
+ -t 1.018200000 -s 0 -d -1 -p cbr -e 1000 -c 2 -a 0 -i 14 -k AGT 
- -t 1.018200000 -s 0 -d -1 -p cbr -e 1000 -c 2 -a 0 -i 14 -k AGT
h -t 1.018200000 -s 0 -d -1 -p cbr -e 1000 -c 2 -a 0 -i 14 -k AGT
+ -t 1.019600000 -s 0 -d -1 -p cbr -e 1000 -c 2 -a 0 -i 15 -k AGT 
- -t 1.019600000 -s 0 -d -1 -p cbr -e 1000 -c 2 -a 0 -i 15 -k AGT
h -t 1.019600000 -s 0 -d -1 -p cbr -e 1000 -c 2 -a 0 -i 15 -k AGT
+ -t 1.021000000 -s 0 -d -1 -p cbr -e 1000 -c 2 -a 0 -i 16 -k AGT 
- -t 1.021000000 -s 0 -d -1 -p cbr -e 1000 -c 2 -a 0 -i 16 -k AGT
h -t 1.021000000 -s 0 -d -1 -p cbr -e 1000 -c 2 -a 0 -i 16 -k AGT
+ -t 1.022400000 -s 0 -d -1 -p cbr -e 1000 -c 2 -a 0 -i 17 -k AGT 
- -t 1.022400000 -s 0 -d -1 -p cbr -e 1000 -c 2 -a 0 -i 17 -k AGT
h -t 1.022400000 -s 0 -d -1 -p cbr -e 1000 -c 2 -a 0 -i 17 -k AGT
+ -t 1.023800000 -s 0 -d -1 -p cbr -e 1000 -c 2 -a 0 -i 18 -k AGT 
- -t 1.023800000 -s 0 -d -1 -p cbr -e 1000 -c 2 -a 0 -i 18 -k AGT
h -t 1.023800000 -s 0 -d -1 -p cbr -e 1000 -c 2 -a 0 -i 18 -k AGT
+ -t 1.025200000 -s 0 -d -1 -p cbr -e 1000 -c 2 -a 0 -i 19 -k AGT 
- -t 1.025200000 -s 0 -d -1 -p cbr -e 1000 -c 2 -a 0 -i 19 -k AGT
h -t 1.025200000 -s 0 -d -1 -p cbr -e 1000 -c 2 -a 0 -i 19 -k AGT
+ -t 1.026600000 -s 0 -d -1 -p cbr -e 1000 -c 2 -a 0 -i 20 -k AGT 
- -t 1.026600000 -s 0 -d -1 -p cbr -e 1000 -c 2 -a 0 -i 20 -k AGT
h -t 1.026600000 -s 0 -d -1 -p cbr -e 1000 -c 2 -a 0 -i 20 -k AGT
+ -t 1.028000000 -s 0 -d -1 -p cbr -e 1000 -c 2 -a 0 -i 21 -k AGT 
- -t 1.028000000 -s 0 -d -1 -p cbr -e 1000 -c 2 -a 0 -i 21 -k AGT
h -t 1.028000000 -s 0 -d -1 -p cbr -e 1000 -c 2 -a 0 -i 21 -k AGT
+ -t 1.029400000 -s 0 -d -1 -p cbr -e 1000 -c 2 -a 0 -i 22 -k AGT 
- -t 1.029400000 -s 0 -d -1 -p cbr -e 1000 -c 2 -a 0 -i 22 -k AGT
h -t 1.029400000 -s 0 -d -1 -p cbr -e 1000 -c 2 -a 0 -i 22 -k AGT
+ -t 1.030800000 -s 0 -d -1 -p cbr -e 1000 -c 2 -a 0 -i 23 -k AGT 
- -t 1.030800000 -s 0 -d -1 -p cbr -e 1000 -c 2 -a 0 -i 23 -k AGT
h -t 1.030800000 -s 0 -d -1 -p cbr -e 1000 -c 2 -a 0 -i 23 -k AGT
+ -t 1.032200000 -s 0 -d -1 -p cbr -e 1000 -c 2 -a 0 -i 24 -k AGT 
- -t 1.032200000 -s 0 -d -1 -p cbr -e 1000 -c 2 -a 0 -i 24 -k AGT
h -t 1.032200000 -s 0 -d -1 -p cbr -e 1000 -c 2 -a 0 -i 24 -k AGT
+ -t 1.033600000 -s 0 -d -1 -p cbr -e 1000 -c 2 -a 0 -i 25 -k AGT 
- -t 1.033600000 -s 0 -d -1 -p cbr -e 1000 -c 2 -a 0 -i 25 -k AGT
h -t 1.033600000 -s 0 -d -1 -p cbr -e 1000 -c 2 -a 0 -i 25 -k AGT
+ -t 1.035000000 -s 0 -d -1 -p cbr -e 1000 -c 2 -a 0 -i 26 -k AGT 
- -t 1.035000000 -s 0 -d -1 -p cbr -e 1000 -c 2 -a 0 -i 26 -k AGT
h -t 1.035000000 -s 0 -d -1 -p cbr -e 1000 -c 2 -a 0 -i 26 -k AGT
+ -t 1.036400000 -s 0 -d -1 -p cbr -e 1000 -c 2 -a 0 -i 27 -k AGT 
- -t 1.036400000 -s 0 -d -1 -p cbr -e 1000 -c 2 -a 0 -i 27 -k AGT
h -t 1.036400000 -s 0 -d -1 -p cbr -e 1000 -c 2 -a 0 -i 27 -k AGT
+ -t 1.037800000 -s 0 -d -1 -p cbr -e 1000 -c 2 -a 0 -i 28 -k AGT 
- -t 1.037800000 -s 0 -d -1 -p cbr -e 1000 -c 2 -a 0 -i 28 -k AGT
h -t 1.037800000 -s 0 -d -1 -p cbr -e 1000 -c 2 -a 0 -i 28 -k AGT
+ -t 1.039200000 -s 0 -d -1 -p cbr -e 1000 -c 2 -a 0 -i 29 -k AGT 
- -t 1.039200000 -s 0 -d -1 -p cbr -e 1000 -c 2 -a 0 -i 29 -k AGT
h -t 1.039200000 -s 0 -d -1 -p cbr -e 1000 -c 2 -a 0 -i 29 -k AGT
+ -t 1.040600000 -s 0 -d -1 -p cbr -e 1000 -c 2 -a 0 -i 30 -k AGT 
- -t 1.040600000 -s 0 -d -1 -p cbr -e 1000 -c 2 -a 0 -i 30 -k AGT
h -t 1.040600000 -s 0 -d -1 -p cbr -e 1000 -c 2 -a 0 -i 30 -k AGT
+ -t 1.042000000 -s 0 -d -1 -p cbr -e 1000 -c 2 -a 0 -i 31 -k AGT 
- -t 1.042000000 -s 0 -d -1 -p cbr -e 1000 -c 2 -a 0 -i 31 -k AGT
h -t 1.042000000 -s 0 -d -1 -p cbr -e 1000 -c 2 -a 0 -i 31 -k AGT
+ -t 1.043400000 -s 0 -d -1 -p cbr -e 1000 -c 2 -a 0 -i 32 -k AGT 
- -t 1.043400000 -s 0 -d -1 -p cbr -e 1000 -c 2 -a 0 -i 32 -k AGT
h -t 1.043400000 -s 0 -d -1 -p cbr -e 1000 -c 2 -a 0 -i 32 -k AGT
+ -t 1.044800000 -s 0 -d -1 -p cbr -e 1000 -c 2 -a 0 -i 33 -k AGT 
- -t 1.044800000 -s 0 -d -1 -p cbr -e 1000 -c 2 -a 0 -i 33 -k AGT
h -t 1.044800000 -s 0 -d -1 -p cbr -e 1000 -c 2 -a 0 -i 33 -k AGT
+ -t 1.046200000 -s 0 -d -1 -p cbr -e 1000 -c 2 -a 0 -i 34 -k AGT 
- -t 1.046200000 -s 0 -d -1 -p cbr -e 1000 -c 2 -a 0 -i 34 -k AGT
h -t 1.046200000 -s 0 -d -1 -p cbr -e 1000 -c 2 -a 0 -i 34 -k AGT
+ -t 1.047600000 -s 0 -d -1 -p cbr -e 1000 -c 2 -a 0 -i 35 -k AGT 
- -t 1.047600000 -s 0 -d -1 -p cbr -e 1000 -c 2 -a 0 -i 35 -k AGT
h -t 1.047600000 -s 0 -d -1 -p cbr -e 1000 -c 2 -a 0 -i 35 -k AGT
+ -t 1.049000000 -s 0 -d -1 -p cbr -e 1000 -c 2 -a 0 -i 36 -k AGT 
- -t 1.049000000 -s 0 -d -1 -p cbr -e 1000 -c 2 -a 0 -i 36 -k AGT
h -t 1.049000000 -s 0 -d -1 -p cbr -e 1000 -c 2 -a 0 -i 36 -k AGT
+ -t 1.050400000 -s 0 -d -1 -p cbr -e 1000 -c 2 -a 0 -i 37 -k AGT 
- -t 1.050400000 -s 0 -d -1 -p cbr -e 1000 -c 2 -a 0 -i 37 -k AGT
h -t 1.050400000 -s 0 -d -1 -p cbr -e 1000 -c 2 -a 0 -i 37 -k AGT
+ -t 1.051800000 -s 0 -d -1 -p cbr -e 1000 -c 2 -a 0 -i 38 -k AGT 
- -t 1.051800000 -s 0 -d -1 -p cbr -e 1000 -c 2 -a 0 -i 38 -k AGT
h -t 1.051800000 -s 0 -d -1 -p cbr -e 1000 -c 2 -a 0 -i 38 -k AGT
+ -t 1.053200000 -s 0 -d -1 -p cbr -e 1000 -c 2 -a 0 -i 39 -k AGT 
- -t 1.053200000 -s 0 -d -1 -p cbr -e 1000 -c 2 -a 0 -i 39 -k AGT
h -t 1.053200000 -s 0 -d -1 -p cbr -e 1000 -c 2 -a 0 -i 39 -k AGT
+ -t 1.054600000 -s 0 -d -1 -p cbr -e 1000 -c 2 -a 0 -i 40 -k AGT 
- -t 1.054600000 -s 0 -d -1 -p cbr -e 1000 -c 2 -a 0 -i 40 -k AGT
h -t 1.054600000 -s 0 -d -1 -p cbr -e 1000 -c 2 -a 0 -i 40 -k AGT
+ -t 1.056000000 -s 0 -d -1 -p cbr -e 1000 -c 2 -a 0 -i 41 -k AGT 
- -t 1.056000000 -s 0 -d -1 -p cbr -e 1000 -c 2 -a 0 -i 41 -k AGT
h -t 1.056000000 -s 0 -d -1 -p cbr -e 1000 -c 2 -a 0 -i 41 -k AGT
+ -t 1.057400000 -s 0 -d -1 -p cbr -e 1000 -c 2 -a 0 -i 42 -k AGT 
- -t 1.057400000 -s 0 -d -1 -p cbr -e 1000 -c 2 -a 0 -i 42 -k AGT
h -t 1.057400000 -s 0 -d -1 -p cbr -e 1000 -c 2 -a 0 -i 42 -k AGT
+ -t 1.058800000 -s 0 -d -1 -p cbr -e 1000 -c 2 -a 0 -i 43 -k AGT 
- -t 1.058800000 -s 0 -d -1 -p cbr -e 1000 -c 2 -a 0 -i 43 -k AGT
h -t 1.058800000 -s 0 -d -1 -p cbr -e 1000 -c 2 -a 0 -i 43 -k AGT
+ -t 1.060200000 -s 0 -d -1 -p cbr -e 1000 -c 2 -a 0 -i 44 -k AGT 
- -t 1.060200000 -s 0 -d -1 -p cbr -e 1000 -c 2 -a 0 -i 44 -k AGT
h -t 1.060200000 -s 0 -d -1 -p cbr -e 1000 -c 2 -a 0 -i 44 -k AGT
+ -t 1.061600000 -s 0 -d -1 -p cbr -e 1000 -c 2 -a 0 -i 45 -k AGT 
- -t 1.061600000 -s 0 -d -1 -p cbr -e 1000 -c 2 -a 0 -i 45 -k AGT
h -t 1.061600000 -s 0 -d -1 -p cbr -e 1000 -c 2 -a 0 -i 45 -k AGT
+ -t 1.063000000 -s 0 -d -1 -p cbr -e 1000 -c 2 -a 0 -i 46 -k AGT 
- -t 1.063000000 -s 0 -d -1 -p cbr -e 1000 -c 2 -a 0 -i 46 -k AGT
h -t 1.063000000 -s 0 -d -1 -p cbr -e 1000 -c 2 -a 0 -i 46 -k AGT
+ -t 1.064400000 -s 0 -d -1 -p cbr -e 1000 -c 2 -a 0 -i 47 -k AGT 
- -t 1.064400000 -s 0 -d -1 -p cbr -e 1000 -c 2 -a 0 -i 47 -k AGT
h -t 1.064400000 -s 0 -d -1 -p cbr -e 1000 -c 2 -a 0 -i 47 -k AGT
+ -t 1.065800000 -s 0 -d -1 -p cbr -e 1000 -c 2 -a 0 -i 48 -k AGT 
- -t 1.065800000 -s 0 -d -1 -p cbr -e 1000 -c 2 -a 0 -i 48 -k AGT
h -t 1.065800000 -s 0 -d -1 -p cbr -e 1000 -c 2 -a 0 -i 48 -k AGT
+ -t 1.067200000 -s 0 -d -1 -p cbr -e 1000 -c 2 -a 0 -i 49 -k AGT 
- -t 1.067200000 -s 0 -d -1 -p cbr -e 1000 -c 2 -a 0 -i 49 -k AGT
h -t 1.067200000 -s 0 -d -1 -p cbr -e 1000 -c 2 -a 0 -i 49 -k AGT
+ -t 1.068600000 -s 0 -d -1 -p cbr -e 1000 -c 2 -a 0 -i 50 -k AGT 
- -t 1.068600000 -s 0 -d -1 -p cbr -e 1000 -c 2 -a 0 -i 50 -k AGT
h -t 1.068600000 -s 0 -d -1 -p cbr -e 1000 -c 2 -a 0 -i 50 -k AGT
+ -t 1.070000000 -s 0 -d -1 -p cbr -e 1000 -c 2 -a 0 -i 51 -k AGT 
- -t 1.070000000 -s 0 -d -1 -p cbr -e 1000 -c 2 -a 0 -i 51 -k AGT
h -t 1.070000000 -s 0 -d -1 -p cbr -e 1000 -c 2 -a 0 -i 51 -k AGT
+ -t 1.071400000 -s 0 -d -1 -p cbr -e 1000 -c 2 -a 0 -i 52 -k AGT 
- -t 1.071400000 -s 0 -d -1 -p cbr -e 1000 -c 2 -a 0 -i 52 -k AGT
h -t 1.071400000 -s 0 -d -1 -p cbr -e 1000 -c 2 -a 0 -i 52 -k AGT
+ -t 1.072800000 -s 0 -d -1 -p cbr -e 1000 -c 2 -a 0 -i 53 -k AGT 
- -t 1.072800000 -s 0 -d -1 -p cbr -e 1000 -c 2 -a 0 -i 53 -k AGT
h -t 1.072800000 -s 0 -d -1 -p cbr -e 1000 -c 2 -a 0 -i 53 -k AGT
+ -t 1.074200000 -s 0 -d -1 -p cbr -e 1000 -c 2 -a 0 -i 54 -k AGT 
- -t 1.074200000 -s 0 -d -1 -p cbr -e 1000 -c 2 -a 0 -i 54 -k AGT
h -t 1.074200000 -s 0 -d -1 -p cbr -e 1000 -c 2 -a 0 -i 54 -k AGT
+ -t 1.075600000 -s 0 -d -1 -p cbr -e 1000 -c 2 -a 0 -i 55 -k AGT 
- -t 1.075600000 -s 0 -d -1 -p cbr -e 1000 -c 2 -a 0 -i 55 -k AGT
h -t 1.075600000 -s 0 -d -1 -p cbr -e 1000 -c 2 -a 0 -i 55 -k AGT
+ -t 1.077000000 -s 0 -d -1 -p cbr -e 1000 -c 2 -a 0 -i 56 -k AGT 
- -t 1.077000000 -s 0 -d -1 -p cbr -e 1000 -c 2 -a 0 -i 56 -k AGT
h -t 1.077000000 -s 0 -d -1 -p cbr -e 1000 -c 2 -a 0 -i 56 -k AGT
+ -t 1.078400000 -s 0 -d -1 -p cbr -e 1000 -c 2 -a 0 -i 57 -k AGT 
- -t 1.078400000 -s 0 -d -1 -p cbr -e 1000 -c 2 -a 0 -i 57 -k AGT
h -t 1.078400000 -s 0 -d -1 -p cbr -e 1000 -c 2 -a 0 -i 57 -k AGT
+ -t 1.079800000 -s 0 -d -1 -p cbr -e 1000 -c 2 -a 0 -i 58 -k AGT 
- -t 1.079800000 -s 0 -d -1 -p cbr -e 1000 -c 2 -a 0 -i 58 -k AGT
h -t 1.079800000 -s 0 -d -1 -p cbr -e 1000 -c 2 -a 0 -i 58 -k AGT
+ -t 1.081200000 -s 0 -d -1 -p cbr -e 1000 -c 2 -a 0 -i 59 -k AGT 
- -t 1.081200000 -s 0 -d -1 -p cbr -e 1000 -c 2 -a 0 -i 59 -k AGT
h -t 1.081200000 -s 0 -d -1 -p cbr -e 1000 -c 2 -a 0 -i 59 -k AGT
+ -t 1.082600000 -s 0 -d -1 -p cbr -e 1000 -c 2 -a 0 -i 60 -k AGT 
- -t 1.082600000 -s 0 -d -1 -p cbr -e 1000 -c 2 -a 0 -i 60 -k AGT
h -t 1.082600000 -s 0 -d -1 -p cbr -e 1000 -c 2 -a 0 -i 60 -k AGT
+ -t 1.084000000 -s 0 -d -1 -p cbr -e 1000 -c 2 -a 0 -i 61 -k AGT 
- -t 1.084000000 -s 0 -d -1 -p cbr -e 1000 -c 2 -a 0 -i 61 -k AGT
h -t 1.084000000 -s 0 -d -1 -p cbr -e 1000 -c 2 -a 0 -i 61 -k AGT
+ -t 1.085400000 -s 0 -d -1 -p cbr -e 1000 -c 2 -a 0 -i 62 -k AGT 
- -t 1.085400000 -s 0 -d -1 -p cbr -e 1000 -c 2 -a 0 -i 62 -k AGT
h -t 1.085400000 -s 0 -d -1 -p cbr -e 1000 -c 2 -a 0 -i 62 -k AGT
+ -t 1.086800000 -s 0 -d -1 -p cbr -e 1000 -c 2 -a 0 -i 63 -k AGT 
- -t 1.086800000 -s 0 -d -1 -p cbr -e 1000 -c 2 -a 0 -i 63 -k AGT
h -t 1.086800000 -s 0 -d -1 -p cbr -e 1000 -c 2 -a 0 -i 63 -k AGT
+ -t 1.088200000 -s 0 -d -1 -p cbr -e 1000 -c 2 -a 0 -i 64 -k AGT 
- -t 1.088200000 -s 0 -d -1 -p cbr -e 1000 -c 2 -a 0 -i 64 -k AGT
h -t 1.088200000 -s 0 -d -1 -p cbr -e 1000 -c 2 -a 0 -i 64 -k AGT
+ -t 1.089600000 -s 0 -d -1 -p cbr -e 1000 -c 2 -a 0 -i 65 -k AGT 
- -t 1.089600000 -s 0 -d -1 -p cbr -e 1000 -c 2 -a 0 -i 65 -k AGT
h -t 1.089600000 -s 0 -d -1 -p cbr -e 1000 -c 2 -a 0 -i 65 -k AGT
+ -t 1.091000000 -s 0 -d -1 -p cbr -e 1000 -c 2 -a 0 -i 66 -k AGT 
- -t 1.091000000 -s 0 -d -1 -p cbr -e 1000 -c 2 -a 0 -i 66 -k AGT
h -t 1.091000000 -s 0 -d -1 -p cbr -e 1000 -c 2 -a 0 -i 66 -k AGT
+ -t 1.092400000 -s 0 -d -1 -p cbr -e 1000 -c 2 -a 0 -i 67 -k AGT 
- -t 1.092400000 -s 0 -d -1 -p cbr -e 1000 -c 2 -a 0 -i 67 -k AGT
h -t 1.092400000 -s 0 -d -1 -p cbr -e 1000 -c 2 -a 0 -i 67 -k AGT
+ -t 1.093800000 -s 0 -d -1 -p cbr -e 1000 -c 2 -a 0 -i 68 -k AGT 
- -t 1.093800000 -s 0 -d -1 -p cbr -e 1000 -c 2 -a 0 -i 68 -k AGT
h -t 1.093800000 -s 0 -d -1 -p cbr -e 1000 -c 2 -a 0 -i 68 -k AGT
+ -t 1.095200000 -s 0 -d -1 -p cbr -e 1000 -c 2 -a 0 -i 69 -k AGT 
- -t 1.095200000 -s 0 -d -1 -p cbr -e 1000 -c 2 -a 0 -i 69 -k AGT
h -t 1.095200000 -s 0 -d -1 -p cbr -e 1000 -c 2 -a 0 -i 69 -k AGT
+ -t 1.096600000 -s 0 -d -1 -p cbr -e 1000 -c 2 -a 0 -i 70 -k AGT 
- -t 1.096600000 -s 0 -d -1 -p cbr -e 1000 -c 2 -a 0 -i 70 -k AGT
h -t 1.096600000 -s 0 -d -1 -p cbr -e 1000 -c 2 -a 0 -i 70 -k AGT
+ -t 1.098000000 -s 0 -d -1 -p cbr -e 1000 -c 2 -a 0 -i 71 -k AGT 
- -t 1.098000000 -s 0 -d -1 -p cbr -e 1000 -c 2 -a 0 -i 71 -k AGT
h -t 1.098000000 -s 0 -d -1 -p cbr -e 1000 -c 2 -a 0 -i 71 -k AGT
+ -t 1.099400000 -s 0 -d -1 -p cbr -e 1000 -c 2 -a 0 -i 72 -k AGT 
- -t 1.099400000 -s 0 -d -1 -p cbr -e 1000 -c 2 -a 0 -i 72 -k AGT
h -t 1.099400000 -s 0 -d -1 -p cbr -e 1000 -c 2 -a 0 -i 72 -k AGT
+ -t 1.100800000 -s 0 -d -1 -p cbr -e 1000 -c 2 -a 0 -i 73 -k AGT 
- -t 1.100800000 -s 0 -d -1 -p cbr -e 1000 -c 2 -a 0 -i 73 -k AGT
h -t 1.100800000 -s 0 -d -1 -p cbr -e 1000 -c 2 -a 0 -i 73 -k AGT
+ -t 1.102200000 -s 0 -d -1 -p cbr -e 1000 -c 2 -a 0 -i 74 -k AGT 
- -t 1.102200000 -s 0 -d -1 -p cbr -e 1000 -c 2 -a 0 -i 74 -k AGT
h -t 1.102200000 -s 0 -d -1 -p cbr -e 1000 -c 2 -a 0 -i 74 -k AGT
+ -t 1.103600000 -s 0 -d -1 -p cbr -e 1000 -c 2 -a 0 -i 75 -k AGT 
- -t 1.103600000 -s 0 -d -1 -p cbr -e 1000 -c 2 -a 0 -i 75 -k AGT
h -t 1.103600000 -s 0 -d -1 -p cbr -e 1000 -c 2 -a 0 -i 75 -k AGT
+ -t 1.105000000 -s 0 -d -1 -p cbr -e 1000 -c 2 -a 0 -i 76 -k AGT 
- -t 1.105000000 -s 0 -d -1 -p cbr -e 1000 -c 2 -a 0 -i 76 -k AGT
h -t 1.105000000 -s 0 -d -1 -p cbr -e 1000 -c 2 -a 0 -i 76 -k AGT
+ -t 1.106400000 -s 0 -d -1 -p cbr -e 1000 -c 2 -a 0 -i 77 -k AGT 
- -t 1.106400000 -s 0 -d -1 -p cbr -e 1000 -c 2 -a 0 -i 77 -k AGT
h -t 1.106400000 -s 0 -d -1 -p cbr -e 1000 -c 2 -a 0 -i 77 -k AGT
+ -t 1.107800000 -s 0 -d -1 -p cbr -e 1000 -c 2 -a 0 -i 78 -k AGT 
- -t 1.107800000 -s 0 -d -1 -p cbr -e 1000 -c 2 -a 0 -i 78 -k AGT
h -t 1.107800000 -s 0 -d -1 -p cbr -e 1000 -c 2 -a 0 -i 78 -k AGT
+ -t 1.109200000 -s 0 -d -1 -p cbr -e 1000 -c 2 -a 0 -i 79 -k AGT 
- -t 1.109200000 -s 0 -d -1 -p cbr -e 1000 -c 2 -a 0 -i 79 -k AGT
h -t 1.109200000 -s 0 -d -1 -p cbr -e 1000 -c 2 -a 0 -i 79 -k AGT
+ -t 1.110600000 -s 0 -d -1 -p cbr -e 1000 -c 2 -a 0 -i 80 -k AGT 
- -t 1.110600000 -s 0 -d -1 -p cbr -e 1000 -c 2 -a 0 -i 80 -k AGT
h -t 1.110600000 -s 0 -d -1 -p cbr -e 1000 -c 2 -a 0 -i 80 -k AGT
+ -t 1.112000000 -s 0 -d -1 -p cbr -e 1000 -c 2 -a 0 -i 81 -k AGT 
- -t 1.112000000 -s 0 -d -1 -p cbr -e 1000 -c 2 -a 0 -i 81 -k AGT
h -t 1.112000000 -s 0 -d -1 -p cbr -e 1000 -c 2 -a 0 -i 81 -k AGT
+ -t 1.113400000 -s 0 -d -1 -p cbr -e 1000 -c 2 -a 0 -i 82 -k AGT 
- -t 1.113400000 -s 0 -d -1 -p cbr -e 1000 -c 2 -a 0 -i 82 -k AGT
h -t 1.113400000 -s 0 -d -1 -p cbr -e 1000 -c 2 -a 0 -i 82 -k AGT
+ -t 1.114800000 -s 0 -d -1 -p cbr -e 1000 -c 2 -a 0 -i 83 -k AGT 
- -t 1.114800000 -s 0 -d -1 -p cbr -e 1000 -c 2 -a 0 -i 83 -k AGT
h -t 1.114800000 -s 0 -d -1 -p cbr -e 1000 -c 2 -a 0 -i 83 -k AGT
+ -t 1.116200000 -s 0 -d -1 -p cbr -e 1000 -c 2 -a 0 -i 84 -k AGT 
- -t 1.116200000 -s 0 -d -1 -p cbr -e 1000 -c 2 -a 0 -i 84 -k AGT
h -t 1.116200000 -s 0 -d -1 -p cbr -e 1000 -c 2 -a 0 -i 84 -k AGT
+ -t 1.117600000 -s 0 -d -1 -p cbr -e 1000 -c 2 -a 0 -i 85 -k AGT 
- -t 1.117600000 -s 0 -d -1 -p cbr -e 1000 -c 2 -a 0 -i 85 -k AGT
h -t 1.117600000 -s 0 -d -1 -p cbr -e 1000 -c 2 -a 0 -i 85 -k AGT
+ -t 1.119000000 -s 0 -d -1 -p cbr -e 1000 -c 2 -a 0 -i 86 -k AGT 
- -t 1.119000000 -s 0 -d -1 -p cbr -e 1000 -c 2 -a 0 -i 86 -k AGT
h -t 1.119000000 -s 0 -d -1 -p cbr -e 1000 -c 2 -a 0 -i 86 -k AGT
+ -t 1.120400000 -s 0 -d -1 -p cbr -e 1000 -c 2 -a 0 -i 87 -k AGT 
- -t 1.120400000 -s 0 -d -1 -p cbr -e 1000 -c 2 -a 0 -i 87 -k AGT
h -t 1.120400000 -s 0 -d -1 -p cbr -e 1000 -c 2 -a 0 -i 87 -k AGT
+ -t 1.121800000 -s 0 -d -1 -p cbr -e 1000 -c 2 -a 0 -i 88 -k AGT 
- -t 1.121800000 -s 0 -d -1 -p cbr -e 1000 -c 2 -a 0 -i 88 -k AGT
h -t 1.121800000 -s 0 -d -1 -p cbr -e 1000 -c 2 -a 0 -i 88 -k AGT
+ -t 1.123200000 -s 0 -d -1 -p cbr -e 1000 -c 2 -a 0 -i 89 -k AGT 
- -t 1.123200000 -s 0 -d -1 -p cbr -e 1000 -c 2 -a 0 -i 89 -k AGT
h -t 1.123200000 -s 0 -d -1 -p cbr -e 1000 -c 2 -a 0 -i 89 -k AGT
+ -t 1.124600000 -s 0 -d -1 -p cbr -e 1000 -c 2 -a 0 -i 90 -k AGT 
- -t 1.124600000 -s 0 -d -1 -p cbr -e 1000 -c 2 -a 0 -i 90 -k AGT
h -t 1.124600000 -s 0 -d -1 -p cbr -e 1000 -c 2 -a 0 -i 90 -k AGT
+ -t 1.126000000 -s 0 -d -1 -p cbr -e 1000 -c 2 -a 0 -i 91 -k AGT 
- -t 1.126000000 -s 0 -d -1 -p cbr -e 1000 -c 2 -a 0 -i 91 -k AGT
h -t 1.126000000 -s 0 -d -1 -p cbr -e 1000 -c 2 -a 0 -i 91 -k AGT
+ -t 1.127400000 -s 0 -d -1 -p cbr -e 1000 -c 2 -a 0 -i 92 -k AGT 
- -t 1.127400000 -s 0 -d -1 -p cbr -e 1000 -c 2 -a 0 -i 92 -k AGT
h -t 1.127400000 -s 0 -d -1 -p cbr -e 1000 -c 2 -a 0 -i 92 -k AGT
+ -t 1.128800000 -s 0 -d -1 -p cbr -e 1000 -c 2 -a 0 -i 93 -k AGT 
- -t 1.128800000 -s 0 -d -1 -p cbr -e 1000 -c 2 -a 0 -i 93 -k AGT
h -t 1.128800000 -s 0 -d -1 -p cbr -e 1000 -c 2 -a 0 -i 93 -k AGT
+ -t 1.130200000 -s 0 -d -1 -p cbr -e 1000 -c 2 -a 0 -i 94 -k AGT 
- -t 1.130200000 -s 0 -d -1 -p cbr -e 1000 -c 2 -a 0 -i 94 -k AGT
h -t 1.130200000 -s 0 -d -1 -p cbr -e 1000 -c 2 -a 0 -i 94 -k AGT
+ -t 1.131600000 -s 0 -d -1 -p cbr -e 1000 -c 2 -a 0 -i 95 -k AGT 
- -t 1.131600000 -s 0 -d -1 -p cbr -e 1000 -c 2 -a 0 -i 95 -k AGT
h -t 1.131600000 -s 0 -d -1 -p cbr -e 1000 -c 2 -a 0 -i 95 -k AGT
+ -t 1.133000000 -s 0 -d -1 -p cbr -e 1000 -c 2 -a 0 -i 96 -k AGT 
- -t 1.133000000 -s 0 -d -1 -p cbr -e 1000 -c 2 -a 0 -i 96 -k AGT
h -t 1.133000000 -s 0 -d -1 -p cbr -e 1000 -c 2 -a 0 -i 96 -k AGT
+ -t 1.134400000 -s 0 -d -1 -p cbr -e 1000 -c 2 -a 0 -i 97 -k AGT 
- -t 1.134400000 -s 0 -d -1 -p cbr -e 1000 -c 2 -a 0 -i 97 -k AGT
h -t 1.134400000 -s 0 -d -1 -p cbr -e 1000 -c 2 -a 0 -i 97 -k AGT
+ -t 1.135800000 -s 0 -d -1 -p cbr -e 1000 -c 2 -a 0 -i 98 -k AGT 
- -t 1.135800000 -s 0 -d -1 -p cbr -e 1000 -c 2 -a 0 -i 98 -k AGT
h -t 1.135800000 -s 0 -d -1 -p cbr -e 1000 -c 2 -a 0 -i 98 -k AGT
+ -t 1.137200000 -s 0 -d -1 -p cbr -e 1000 -c 2 -a 0 -i 99 -k AGT 
- -t 1.137200000 -s 0 -d -1 -p cbr -e 1000 -c 2 -a 0 -i 99 -k AGT
h -t 1.137200000 -s 0 -d -1 -p cbr -e 1000 -c 2 -a 0 -i 99 -k AGT
+ -t 1.138600000 -s 0 -d -1 -p cbr -e 1000 -c 2 -a 0 -i 100 -k AGT 
- -t 1.138600000 -s 0 -d -1 -p cbr -e 1000 -c 2 -a 0 -i 100 -k AGT
h -t 1.138600000 -s 0 -d -1 -p cbr -e 1000 -c 2 -a 0 -i 100 -k AGT
+ -t 1.140000000 -s 0 -d -1 -p cbr -e 1000 -c 2 -a 0 -i 101 -k AGT 
- -t 1.140000000 -s 0 -d -1 -p cbr -e 1000 -c 2 -a 0 -i 101 -k AGT
h -t 1.140000000 -s 0 -d -1 -p cbr -e 1000 -c 2 -a 0 -i 101 -k AGT
+ -t 1.141400000 -s 0 -d -1 -p cbr -e 1000 -c 2 -a 0 -i 102 -k AGT 
- -t 1.141400000 -s 0 -d -1 -p cbr -e 1000 -c 2 -a 0 -i 102 -k AGT
h -t 1.141400000 -s 0 -d -1 -p cbr -e 1000 -c 2 -a 0 -i 102 -k AGT
+ -t 1.142800000 -s 0 -d -1 -p cbr -e 1000 -c 2 -a 0 -i 103 -k AGT 
- -t 1.142800000 -s 0 -d -1 -p cbr -e 1000 -c 2 -a 0 -i 103 -k AGT
h -t 1.142800000 -s 0 -d -1 -p cbr -e 1000 -c 2 -a 0 -i 103 -k AGT
+ -t 1.144200000 -s 0 -d -1 -p cbr -e 1000 -c 2 -a 0 -i 104 -k AGT 
- -t 1.144200000 -s 0 -d -1 -p cbr -e 1000 -c 2 -a 0 -i 104 -k AGT
h -t 1.144200000 -s 0 -d -1 -p cbr -e 1000 -c 2 -a 0 -i 104 -k AGT
+ -t 1.145600000 -s 0 -d -1 -p cbr -e 1000 -c 2 -a 0 -i 105 -k AGT 
- -t 1.145600000 -s 0 -d -1 -p cbr -e 1000 -c 2 -a 0 -i 105 -k AGT
h -t 1.145600000 -s 0 -d -1 -p cbr -e 1000 -c 2 -a 0 -i 105 -k AGT
+ -t 1.147000000 -s 0 -d -1 -p cbr -e 1000 -c 2 -a 0 -i 106 -k AGT 
- -t 1.147000000 -s 0 -d -1 -p cbr -e 1000 -c 2 -a 0 -i 106 -k AGT
h -t 1.147000000 -s 0 -d -1 -p cbr -e 1000 -c 2 -a 0 -i 106 -k AGT
+ -t 1.148400000 -s 0 -d -1 -p cbr -e 1000 -c 2 -a 0 -i 107 -k AGT 
- -t 1.148400000 -s 0 -d -1 -p cbr -e 1000 -c 2 -a 0 -i 107 -k AGT
h -t 1.148400000 -s 0 -d -1 -p cbr -e 1000 -c 2 -a 0 -i 107 -k AGT
+ -t 1.149800000 -s 0 -d -1 -p cbr -e 1000 -c 2 -a 0 -i 108 -k AGT 
- -t 1.149800000 -s 0 -d -1 -p cbr -e 1000 -c 2 -a 0 -i 108 -k AGT
h -t 1.149800000 -s 0 -d -1 -p cbr -e 1000 -c 2 -a 0 -i 108 -k AGT
+ -t 1.151200000 -s 0 -d -1 -p cbr -e 1000 -c 2 -a 0 -i 109 -k AGT 
- -t 1.151200000 -s 0 -d -1 -p cbr -e 1000 -c 2 -a 0 -i 109 -k AGT
h -t 1.151200000 -s 0 -d -1 -p cbr -e 1000 -c 2 -a 0 -i 109 -k AGT
+ -t 1.152600000 -s 0 -d -1 -p cbr -e 1000 -c 2 -a 0 -i 110 -k AGT 
- -t 1.152600000 -s 0 -d -1 -p cbr -e 1000 -c 2 -a 0 -i 110 -k AGT
h -t 1.152600000 -s 0 -d -1 -p cbr -e 1000 -c 2 -a 0 -i 110 -k AGT
+ -t 1.154000000 -s 0 -d -1 -p cbr -e 1000 -c 2 -a 0 -i 111 -k AGT 
- -t 1.154000000 -s 0 -d -1 -p cbr -e 1000 -c 2 -a 0 -i 111 -k AGT
h -t 1.154000000 -s 0 -d -1 -p cbr -e 1000 -c 2 -a 0 -i 111 -k AGT
+ -t 1.155400000 -s 0 -d -1 -p cbr -e 1000 -c 2 -a 0 -i 112 -k AGT 
- -t 1.155400000 -s 0 -d -1 -p cbr -e 1000 -c 2 -a 0 -i 112 -k AGT
h -t 1.155400000 -s 0 -d -1 -p cbr -e 1000 -c 2 -a 0 -i 112 -k AGT
+ -t 1.156800000 -s 0 -d -1 -p cbr -e 1000 -c 2 -a 0 -i 113 -k AGT 
- -t 1.156800000 -s 0 -d -1 -p cbr -e 1000 -c 2 -a 0 -i 113 -k AGT
h -t 1.156800000 -s 0 -d -1 -p cbr -e 1000 -c 2 -a 0 -i 113 -k AGT
+ -t 1.158200000 -s 0 -d -1 -p cbr -e 1000 -c 2 -a 0 -i 114 -k AGT 
- -t 1.158200000 -s 0 -d -1 -p cbr -e 1000 -c 2 -a 0 -i 114 -k AGT
h -t 1.158200000 -s 0 -d -1 -p cbr -e 1000 -c 2 -a 0 -i 114 -k AGT
+ -t 1.159600000 -s 0 -d -1 -p cbr -e 1000 -c 2 -a 0 -i 115 -k AGT 
- -t 1.159600000 -s 0 -d -1 -p cbr -e 1000 -c 2 -a 0 -i 115 -k AGT
h -t 1.159600000 -s 0 -d -1 -p cbr -e 1000 -c 2 -a 0 -i 115 -k AGT
+ -t 1.161000000 -s 0 -d -1 -p cbr -e 1000 -c 2 -a 0 -i 116 -k AGT 
- -t 1.161000000 -s 0 -d -1 -p cbr -e 1000 -c 2 -a 0 -i 116 -k AGT
h -t 1.161000000 -s 0 -d -1 -p cbr -e 1000 -c 2 -a 0 -i 116 -k AGT
+ -t 1.162400000 -s 0 -d -1 -p cbr -e 1000 -c 2 -a 0 -i 117 -k AGT 
- -t 1.162400000 -s 0 -d -1 -p cbr -e 1000 -c 2 -a 0 -i 117 -k AGT
h -t 1.162400000 -s 0 -d -1 -p cbr -e 1000 -c 2 -a 0 -i 117 -k AGT
+ -t 1.163800000 -s 0 -d -1 -p cbr -e 1000 -c 2 -a 0 -i 118 -k AGT 
- -t 1.163800000 -s 0 -d -1 -p cbr -e 1000 -c 2 -a 0 -i 118 -k AGT
h -t 1.163800000 -s 0 -d -1 -p cbr -e 1000 -c 2 -a 0 -i 118 -k AGT
+ -t 1.165200000 -s 0 -d -1 -p cbr -e 1000 -c 2 -a 0 -i 119 -k AGT 
- -t 1.165200000 -s 0 -d -1 -p cbr -e 1000 -c 2 -a 0 -i 119 -k AGT
h -t 1.165200000 -s 0 -d -1 -p cbr -e 1000 -c 2 -a 0 -i 119 -k AGT
+ -t 1.166600000 -s 0 -d -1 -p cbr -e 1000 -c 2 -a 0 -i 120 -k AGT 
- -t 1.166600000 -s 0 -d -1 -p cbr -e 1000 -c 2 -a 0 -i 120 -k AGT
h -t 1.166600000 -s 0 -d -1 -p cbr -e 1000 -c 2 -a 0 -i 120 -k AGT
+ -t 1.168000000 -s 0 -d -1 -p cbr -e 1000 -c 2 -a 0 -i 121 -k AGT 
- -t 1.168000000 -s 0 -d -1 -p cbr -e 1000 -c 2 -a 0 -i 121 -k AGT
h -t 1.168000000 -s 0 -d -1 -p cbr -e 1000 -c 2 -a 0 -i 121 -k AGT
+ -t 1.169400000 -s 0 -d -1 -p cbr -e 1000 -c 2 -a 0 -i 122 -k AGT 
- -t 1.169400000 -s 0 -d -1 -p cbr -e 1000 -c 2 -a 0 -i 122 -k AGT
h -t 1.169400000 -s 0 -d -1 -p cbr -e 1000 -c 2 -a 0 -i 122 -k AGT
+ -t 1.170800000 -s 0 -d -1 -p cbr -e 1000 -c 2 -a 0 -i 123 -k AGT 
- -t 1.170800000 -s 0 -d -1 -p cbr -e 1000 -c 2 -a 0 -i 123 -k AGT
h -t 1.170800000 -s 0 -d -1 -p cbr -e 1000 -c 2 -a 0 -i 123 -k AGT
+ -t 1.172200000 -s 0 -d -1 -p cbr -e 1000 -c 2 -a 0 -i 124 -k AGT 
- -t 1.172200000 -s 0 -d -1 -p cbr -e 1000 -c 2 -a 0 -i 124 -k AGT
h -t 1.172200000 -s 0 -d -1 -p cbr -e 1000 -c 2 -a 0 -i 124 -k AGT
+ -t 1.173600000 -s 0 -d -1 -p cbr -e 1000 -c 2 -a 0 -i 125 -k AGT 
- -t 1.173600000 -s 0 -d -1 -p cbr -e 1000 -c 2 -a 0 -i 125 -k AGT
h -t 1.173600000 -s 0 -d -1 -p cbr -e 1000 -c 2 -a 0 -i 125 -k AGT
+ -t 1.175000000 -s 0 -d -1 -p cbr -e 1000 -c 2 -a 0 -i 126 -k AGT 
- -t 1.175000000 -s 0 -d -1 -p cbr -e 1000 -c 2 -a 0 -i 126 -k AGT
h -t 1.175000000 -s 0 -d -1 -p cbr -e 1000 -c 2 -a 0 -i 126 -k AGT
+ -t 1.176400000 -s 0 -d -1 -p cbr -e 1000 -c 2 -a 0 -i 127 -k AGT 
- -t 1.176400000 -s 0 -d -1 -p cbr -e 1000 -c 2 -a 0 -i 127 -k AGT
h -t 1.176400000 -s 0 -d -1 -p cbr -e 1000 -c 2 -a 0 -i 127 -k AGT
+ -t 1.177800000 -s 0 -d -1 -p cbr -e 1000 -c 2 -a 0 -i 128 -k AGT 
- -t 1.177800000 -s 0 -d -1 -p cbr -e 1000 -c 2 -a 0 -i 128 -k AGT
h -t 1.177800000 -s 0 -d -1 -p cbr -e 1000 -c 2 -a 0 -i 128 -k AGT
+ -t 1.179200000 -s 0 -d -1 -p cbr -e 1000 -c 2 -a 0 -i 129 -k AGT 
- -t 1.179200000 -s 0 -d -1 -p cbr -e 1000 -c 2 -a 0 -i 129 -k AGT
h -t 1.179200000 -s 0 -d -1 -p cbr -e 1000 -c 2 -a 0 -i 129 -k AGT
+ -t 1.180600000 -s 0 -d -1 -p cbr -e 1000 -c 2 -a 0 -i 130 -k AGT 
- -t 1.180600000 -s 0 -d -1 -p cbr -e 1000 -c 2 -a 0 -i 130 -k AGT
h -t 1.180600000 -s 0 -d -1 -p cbr -e 1000 -c 2 -a 0 -i 130 -k AGT
+ -t 1.182000000 -s 0 -d -1 -p cbr -e 1000 -c 2 -a 0 -i 131 -k AGT 
- -t 1.182000000 -s 0 -d -1 -p cbr -e 1000 -c 2 -a 0 -i 131 -k AGT
h -t 1.182000000 -s 0 -d -1 -p cbr -e 1000 -c 2 -a 0 -i 131 -k AGT
+ -t 1.183400000 -s 0 -d -1 -p cbr -e 1000 -c 2 -a 0 -i 132 -k AGT 
- -t 1.183400000 -s 0 -d -1 -p cbr -e 1000 -c 2 -a 0 -i 132 -k AGT
h -t 1.183400000 -s 0 -d -1 -p cbr -e 1000 -c 2 -a 0 -i 132 -k AGT
+ -t 1.184800000 -s 0 -d -1 -p cbr -e 1000 -c 2 -a 0 -i 133 -k AGT 
- -t 1.184800000 -s 0 -d -1 -p cbr -e 1000 -c 2 -a 0 -i 133 -k AGT
h -t 1.184800000 -s 0 -d -1 -p cbr -e 1000 -c 2 -a 0 -i 133 -k AGT
+ -t 1.186200000 -s 0 -d -1 -p cbr -e 1000 -c 2 -a 0 -i 134 -k AGT 
- -t 1.186200000 -s 0 -d -1 -p cbr -e 1000 -c 2 -a 0 -i 134 -k AGT
h -t 1.186200000 -s 0 -d -1 -p cbr -e 1000 -c 2 -a 0 -i 134 -k AGT
+ -t 1.187600000 -s 0 -d -1 -p cbr -e 1000 -c 2 -a 0 -i 135 -k AGT 
- -t 1.187600000 -s 0 -d -1 -p cbr -e 1000 -c 2 -a 0 -i 135 -k AGT
h -t 1.187600000 -s 0 -d -1 -p cbr -e 1000 -c 2 -a 0 -i 135 -k AGT
+ -t 1.189000000 -s 0 -d -1 -p cbr -e 1000 -c 2 -a 0 -i 136 -k AGT 
- -t 1.189000000 -s 0 -d -1 -p cbr -e 1000 -c 2 -a 0 -i 136 -k AGT
h -t 1.189000000 -s 0 -d -1 -p cbr -e 1000 -c 2 -a 0 -i 136 -k AGT
+ -t 1.190400000 -s 0 -d -1 -p cbr -e 1000 -c 2 -a 0 -i 137 -k AGT 
- -t 1.190400000 -s 0 -d -1 -p cbr -e 1000 -c 2 -a 0 -i 137 -k AGT
h -t 1.190400000 -s 0 -d -1 -p cbr -e 1000 -c 2 -a 0 -i 137 -k AGT
+ -t 1.191800000 -s 0 -d -1 -p cbr -e 1000 -c 2 -a 0 -i 138 -k AGT 
- -t 1.191800000 -s 0 -d -1 -p cbr -e 1000 -c 2 -a 0 -i 138 -k AGT
h -t 1.191800000 -s 0 -d -1 -p cbr -e 1000 -c 2 -a 0 -i 138 -k AGT
+ -t 1.193200000 -s 0 -d -1 -p cbr -e 1000 -c 2 -a 0 -i 139 -k AGT 
- -t 1.193200000 -s 0 -d -1 -p cbr -e 1000 -c 2 -a 0 -i 139 -k AGT
h -t 1.193200000 -s 0 -d -1 -p cbr -e 1000 -c 2 -a 0 -i 139 -k AGT
+ -t 1.194600000 -s 0 -d -1 -p cbr -e 1000 -c 2 -a 0 -i 140 -k AGT 
- -t 1.194600000 -s 0 -d -1 -p cbr -e 1000 -c 2 -a 0 -i 140 -k AGT
h -t 1.194600000 -s 0 -d -1 -p cbr -e 1000 -c 2 -a 0 -i 140 -k AGT
+ -t 1.196000000 -s 0 -d -1 -p cbr -e 1000 -c 2 -a 0 -i 141 -k AGT 
- -t 1.196000000 -s 0 -d -1 -p cbr -e 1000 -c 2 -a 0 -i 141 -k AGT
h -t 1.196000000 -s 0 -d -1 -p cbr -e 1000 -c 2 -a 0 -i 141 -k AGT
+ -t 1.197400000 -s 0 -d -1 -p cbr -e 1000 -c 2 -a 0 -i 142 -k AGT 
- -t 1.197400000 -s 0 -d -1 -p cbr -e 1000 -c 2 -a 0 -i 142 -k AGT
h -t 1.197400000 -s 0 -d -1 -p cbr -e 1000 -c 2 -a 0 -i 142 -k AGT
+ -t 1.198800000 -s 0 -d -1 -p cbr -e 1000 -c 2 -a 0 -i 143 -k AGT 
- -t 1.198800000 -s 0 -d -1 -p cbr -e 1000 -c 2 -a 0 -i 143 -k AGT
h -t 1.198800000 -s 0 -d -1 -p cbr -e 1000 -c 2 -a 0 -i 143 -k AGT
+ -t 1.200200000 -s 0 -d -1 -p cbr -e 1000 -c 2 -a 0 -i 144 -k AGT 
- -t 1.200200000 -s 0 -d -1 -p cbr -e 1000 -c 2 -a 0 -i 144 -k AGT