s -t 0.100006792 -Hs 0 -Hd 0 -Ni 0 -Nx 0.00 -Ny 300.00 -Nz 0.00 -Ne -1.000000 -Nl RTR -Nw --- -Ma 0 -Md 0 -Ms 0 -Mt 0 -Is 0.255 -Id -1.255 -It AODVUU -Il 48 -If 0 -Ii 0 -Iv 1 -P aodvuu -Pt 0x0 -Ph 3 -Pd 0 -Pds 1 -Ps 255 -Pl 32.000000 -Pc HELLO 
s -t 0.100006792 -Hs 0 -Hd 0 -Ni 0 -Nx 0.00 -Ny 300.00 -Nz 0.00 -Ne -1.000000 -Nl RTR -Nw --- -Ma 0 -Md 0 -Ms 0 -Mt 0 -Is 0.255 -Id -1.255 -It AODVUU -Il 48 -If 0 -Ii 0 -Iv 1 -P aodvuu -Pt 0x0 -Ph 3 -Pd 0 -Pds 1 -Ps 255 -Pl 32.000000 -Pc HELLO 
s -t 0.100006792 -Hs 0 -Hd 0 -Ni 0 -Nx 0.00 -Ny 300.00 -Nz 0.00 -Ne -1.000000 -Nl RTR -Nw --- -Ma 0 -Md 0 -Ms 0 -Mt 0 -Is 0.255 -Id -1.255 -It AODVUU -Il 48 -If 0 -Ii 0 -Iv 1 -P aodvuu -Pt 0x0 -Ph 3 -Pd 0 -Pds 1 -Ps 255 -Pl 32.000000 -Pc HELLO 
s -t 0.100284093 -Hs 2 -Hd 0 -Ni 2 -Nx 300.00 -Ny 300.00 -Nz 0.00 -Ne -1.000000 -Nl RTR -Nw --- -Ma 0 -Md 0 -Ms 0 -Mt 0 -Is 2.255 -Id -1.255 -It AODVUU -Il 48 -If 0 -Ii 2 -Iv 1 -P aodvuu -Pt 0x0 -Ph 3 -Pd 2 -Pds 1 -Ps 255 -Pl 32.000000 -Pc HELLO 
s -t 0.100284093 -Hs 2 -Hd 0 -Ni 2 -Nx 300.00 -Ny 300.00 -Nz 0.00 -Ne -1.000000 -Nl RTR -Nw --- -Ma 0 -Md 0 -Ms 0 -Mt 0 -Is 2.255 -Id -1.255 -It AODVUU -Il 48 -If 0 -Ii 2 -Iv 1 -P aodvuu -Pt 0x0 -Ph 3 -Pd 2 -Pds 1 -Ps 255 -Pl 32.000000 -Pc HELLO 
s -t 0.100284093 -Hs 2 -Hd 0 -Ni 2 -Nx 300.00 -Ny 300.00 -Nz 0.00 -Ne -1.000000 -Nl RTR -Nw --- -Ma 0 -Md 0 -Ms 0 -Mt 0 -Is 2.255 -Id -1.255 -It AODVUU -Il 48 -If 0 -Ii 2 -Iv 1 -P aodvuu -Pt 0x0 -Ph 3 -Pd 2 -Pds 1 -Ps 255 -Pl 32.000000 -Pc HELLO 
r -t 0.101115125 -Hs 1 -Hd 0 -Ni 1 -Nx 100.00 -Ny 300.00 -Nz 0.00 -Ne -1.000000 -Nl RTR -Nw --- -Ma 0 -Md ffffffff -Ms 0 -Mt 800 -Is 0.255 -Id -1.255 -It AODVUU -Il 48 -If 0 -Ii 0 -Iv 1 -P aodvuu -Pt 0x0 -Ph 3 -Pd 0 -Pds 1 -Ps 255 -Pl 32.000000 -Pc HELLO 
s -t 0.101115125 -Hs 1 -Hd 0 -Ni 1 -Nx 100.00 -Ny 300.00 -Nz 0.00 -Ne -1.000000 -Nl RTR -Nw --- -Ma 0 -Md 0 -Ms 0 -Mt 0 -Is 1.255 -Id 0.255 -It AODVUU -Il 36 -If 0 -Ii 6 -Iv 1 -P aodvuu -Pt 0x9 -Ph 0 -Pd 0 -Pds 1 -Ps 511 -Pl 0.000000 -Pc REPLY 
r -t 0.101155125 -Hs 1 -Hd 0 -Ni 1 -Nx 100.00 -Ny 300.00 -Nz 0.00 -Ne -1.000000 -Nl RTR -Nw --- -Ma 0 -Md ffffffff -Ms 1 -Mt 800 -Is 0.255 -Id -1.255 -It AODVUU -Il 48 -If 0 -Ii 0 -Iv 1 -P aodvuu -Pt 0x0 -Ph 3 -Pd 0 -Pds 1 -Ps 255 -Pl 32.000000 -Pc HELLO 
s -t 0.101155125 -Hs 1 -Hd 0 -Ni 1 -Nx 100.00 -Ny 300.00 -Nz 0.00 -Ne -1.000000 -Nl RTR -Nw --- -Ma 0 -Md 0 -Ms 0 -Mt 0 -Is 1.255 -Id 0.255 -It AODVUU -Il 36 -If 0 -Ii 7 -Iv 1 -P aodvuu -Pt 0x9 -Ph 0 -Pd 0 -Pds 1 -Ps 511 -Pl 0.000000 -Pc REPLY 
d -t 0.101155125 -Hs 1 -Hd 0 -Ni 1 -Nx 100.00 -Ny 300.00 -Nz 0.00 -Ne -1.000000 -Nl IFQ -Nw ARP -Ma 0 -Md 0 -Ms 3 -Mt 800 -Is 1.255 -Id 0.255 -It AODVUU -Il 36 -If 0 -Ii 6 -Iv 1 -P aodvuu -Pt 0x9 -Ph 0 -Pd 0 -Pds 1 -Ps 511 -Pl 0.000000 -Pc REPLY 
r -t 0.101195125 -Hs 1 -Hd 0 -Ni 1 -Nx 100.00 -Ny 300.00 -Nz 0.00 -Ne -1.000000 -Nl RTR -Nw --- -Ma 0 -Md ffffffff -Ms 2 -Mt 800 -Is 0.255 -Id -1.255 -It AODVUU -Il 48 -If 0 -Ii 0 -Iv 1 -P aodvuu -Pt 0x0 -Ph 3 -Pd 0 -Pds 1 -Ps 255 -Pl 32.000000 -Pc HELLO 
s -t 0.101195125 -Hs 1 -Hd 0 -Ni 1 -Nx 100.00 -Ny 300.00 -Nz 0.00 -Ne -1.000000 -Nl RTR -Nw --- -Ma 0 -Md 0 -Ms 0 -Mt 0 -Is 1.255 -Id 0.255 -It AODVUU -Il 36 -If 0 -Ii 8 -Iv 1 -P aodvuu -Pt 0x9 -Ph 0 -Pd 0 -Pds 1 -Ps 511 -Pl 0.000000 -Pc REPLY 
d -t 0.101195125 -Hs 1 -Hd 0 -Ni 1 -Nx 100.00 -Ny 300.00 -Nz 0.00 -Ne -1.000000 -Nl IFQ -Nw ARP -Ma 0 -Md 0 -Ms 3 -Mt 800 -Is 1.255 -Id 0.255 -It AODVUU -Il 36 -If 0 -Ii 7 -Iv 1 -P aodvuu -Pt 0x9 -Ph 0 -Pd 0 -Pds 1 -Ps 511 -Pl 0.000000 -Pc REPLY 
s -t 0.101762453 -Hs 3 -Hd 0 -Ni 3 -Nx 300.00 -Ny 0.00 -Nz 0.00 -Ne -1.000000 -Nl RTR -Nw --- -Ma 0 -Md 0 -Ms 0 -Mt 0 -Is 3.255 -Id -1.255 -It AODVUU -Il 48 -If 0 -Ii 3 -Iv 1 -P aodvuu -Pt 0x0 -Ph 3 -Pd 3 -Pds 1 -Ps 255 -Pl 32.000000 -Pc HELLO 
s -t 0.101762453 -Hs 3 -Hd 0 -Ni 3 -Nx 300.00 -Ny 0.00 -Nz 0.00 -Ne -1.000000 -Nl RTR -Nw --- -Ma 0 -Md 0 -Ms 0 -Mt 0 -Is 3.255 -Id -1.255 -It AODVUU -Il 48 -If 0 -Ii 3 -Iv 1 -P aodvuu -Pt 0x0 -Ph 3 -Pd 3 -Pds 1 -Ps 255 -Pl 32.000000 -Pc HELLO 
s -t 0.101762453 -Hs 3 -Hd 0 -Ni 3 -Nx 300.00 -Ny 0.00 -Nz 0.00 -Ne -1.000000 -Nl RTR -Nw --- -Ma 0 -Md 0 -Ms 0 -Mt 0 -Is 3.255 -Id -1.255 -It AODVUU -Il 48 -If 0 -Ii 3 -Iv 1 -P aodvuu -Pt 0x0 -Ph 3 -Pd 3 -Pds 1 -Ps 255 -Pl 32.000000 -Pc HELLO 
r -t 0.102678458 -Hs 1 -Hd 0 -Ni 1 -Nx 100.00 -Ny 300.00 -Nz 0.00 -Ne -1.000000 -Nl RTR -Nw --- -Ma 0 -Md ffffffff -Ms 7 -Mt 800 -Is 2.255 -Id -1.255 -It AODVUU -Il 48 -If 0 -Ii 2 -Iv 1 -P aodvuu -Pt 0x0 -Ph 3 -Pd 2 -Pds 1 -Ps 255 -Pl 32.000000 -Pc HELLO 
r -t 0.102678458 -Hs 4 -Hd 0 -Ni 4 -Nx 500.00 -Ny 300.00 -Nz 0.00 -Ne -1.000000 -Nl RTR -Nw --- -Ma 0 -Md ffffffff -Ms 7 -Mt 800 -Is 2.255 -Id -1.255 -It AODVUU -Il 48 -If 0 -Ii 2 -Iv 1 -P aodvuu -Pt 0x0 -Ph 3 -Pd 2 -Pds 1 -Ps 255 -Pl 32.000000 -Pc HELLO 
s -t 0.102678458 -Hs 1 -Hd 2 -Ni 1 -Nx 100.00 -Ny 300.00 -Nz 0.00 -Ne -1.000000 -Nl RTR -Nw --- -Ma 0 -Md 0 -Ms 0 -Mt 0 -Is 1.255 -Id 2.255 -It AODVUU -Il 36 -If 0 -Ii 9 -Iv 1 -P aodvuu -Pt 0x9 -Ph 0 -Pd 2 -Pds 1 -Ps 511 -Pl 0.000000 -Pc REPLY 
s -t 0.102678458 -Hs 4 -Hd 2 -Ni 4 -Nx 500.00 -Ny 300.00 -Nz 0.00 -Ne -1.000000 -Nl RTR -Nw --- -Ma 0 -Md 0 -Ms 0 -Mt 0 -Is 4.255 -Id 2.255 -It AODVUU -Il 36 -If 0 -Ii 10 -Iv 1 -P aodvuu -Pt 0x9 -Ph 0 -Pd 2 -Pds 4 -Ps 511 -Pl 0.000000 -Pc REPLY 
r -t 0.102698458 -Hs 1 -Hd 0 -Ni 1 -Nx 100.00 -Ny 300.00 -Nz 0.00 -Ne -1.000000 -Nl RTR -Nw --- -Ma 0 -Md ffffffff -Ms 8 -Mt 800 -Is 2.255 -Id -1.255 -It AODVUU -Il 48 -If 0 -Ii 2 -Iv 1 -P aodvuu -Pt 0x0 -Ph 3 -Pd 2 -Pds 1 -Ps 255 -Pl 32.000000 -Pc HELLO 
r -t 0.102698458 -Hs 4 -Hd 0 -Ni 4 -Nx 500.00 -Ny 300.00 -Nz 0.00 -Ne -1.000000 -Nl RTR -Nw --- -Ma 0 -Md ffffffff -Ms 8 -Mt 800 -Is 2.255 -Id -1.255 -It AODVUU -Il 48 -If 0 -Ii 2 -Iv 1 -P aodvuu -Pt 0x0 -Ph 3 -Pd 2 -Pds 1 -Ps 255 -Pl 32.000000 -Pc HELLO 
s -t 0.102698458 -Hs 1 -Hd 2 -Ni 1 -Nx 100.00 -Ny 300.00 -Nz 0.00 -Ne -1.000000 -Nl RTR -Nw --- -Ma 0 -Md 0 -Ms 0 -Mt 0 -Is 1.255 -Id 2.255 -It AODVUU -Il 36 -If 0 -Ii 11 -Iv 1 -P aodvuu -Pt 0x9 -Ph 0 -Pd 2 -Pds 1 -Ps 511 -Pl 0.000000 -Pc REPLY 
d -t 0.102698458 -Hs 1 -Hd 2 -Ni 1 -Nx 100.00 -Ny 300.00 -Nz 0.00 -Ne -1.000000 -Nl IFQ -Nw ARP -Ma 0 -Md 0 -Ms 3 -Mt 800 -Is 1.255 -Id 2.255 -It AODVUU -Il 36 -If 0 -Ii 9 -Iv 1 -P aodvuu -Pt 0x9 -Ph 0 -Pd 2 -Pds 1 -Ps 511 -Pl 0.000000 -Pc REPLY 
s -t 0.102698458 -Hs 4 -Hd 2 -Ni 4 -Nx 500.00 -Ny 300.00 -Nz 0.00 -Ne -1.000000 -Nl RTR -Nw --- -Ma 0 -Md 0 -Ms 0 -Mt 0 -Is 4.255 -Id 2.255 -It AODVUU -Il 36 -If 0 -Ii 12 -Iv 1 -P aodvuu -Pt 0x9 -Ph 0 -Pd 2 -Pds 4 -Ps 511 -Pl 0.000000 -Pc REPLY 
d -t 0.102698458 -Hs 4 -Hd 2 -Ni 4 -Nx 500.00 -Ny 300.00 -Nz 0.00 -Ne -1.000000 -Nl IFQ -Nw ARP -Ma 0 -Md 0 -Ms c -Mt 800 -Is 4.255 -Id 2.255 -It AODVUU -Il 36 -If 0 -Ii 10 -Iv 1 -P aodvuu -Pt 0x9 -Ph 0 -Pd 2 -Pds 4 -Ps 511 -Pl 0.000000 -Pc REPLY 
r -t 0.103482458 -Hs 1 -Hd 0 -Ni 1 -Nx 100.00 -Ny 300.00 -Nz 0.00 -Ne -1.000000 -Nl RTR -Nw --- -Ma 0 -Md ffffffff -Ms 6 -Mt 800 -Is 2.255 -Id -1.255 -It AODVUU -Il 48 -If 0 -Ii 2 -Iv 1 -P aodvuu -Pt 0x0 -Ph 3 -Pd 2 -Pds 1 -Ps 255 -Pl 32.000000 -Pc HELLO 
r -t 0.103482458 -Hs 4 -Hd 0 -Ni 4 -Nx 500.00 -Ny 300.00 -Nz 0.00 -Ne -1.000000 -Nl RTR -Nw --- -Ma 0 -Md ffffffff -Ms 6 -Mt 800 -Is 2.255 -Id -1.255 -It AODVUU -Il 48 -If 0 -Ii 2 -Iv 1 -P aodvuu -Pt 0x0 -Ph 3 -Pd 2 -Pds 1 -Ps 255 -Pl 32.000000 -Pc HELLO 
s -t 0.103482458 -Hs 1 -Hd 2 -Ni 1 -Nx 100.00 -Ny 300.00 -Nz 0.00 -Ne -1.000000 -Nl RTR -Nw --- -Ma 0 -Md 0 -Ms 0 -Mt 0 -Is 1.255 -Id 2.255 -It AODVUU -Il 36 -If 0 -Ii 13 -Iv 1 -P aodvuu -Pt 0x9 -Ph 0 -Pd 2 -Pds 1 -Ps 511 -Pl 0.000000 -Pc REPLY 
d -t 0.103482458 -Hs 1 -Hd 2 -Ni 1 -Nx 100.00 -Ny 300.00 -Nz 0.00 -Ne -1.000000 -Nl IFQ -Nw ARP -Ma 0 -Md 0 -Ms 3 -Mt 800 -Is 1.255 -Id 2.255 -It AODVUU -Il 36 -If 0 -Ii 11 -Iv 1 -P aodvuu -Pt 0x9 -Ph 0 -Pd 2 -Pds 1 -Ps 511 -Pl 0.000000 -Pc REPLY 
s -t 0.103482458 -Hs 4 -Hd 2 -Ni 4 -Nx 500.00 -Ny 300.00 -Nz 0.00 -Ne -1.000000 -Nl RTR -Nw --- -Ma 0 -Md 0 -Ms 0 -Mt 0 -Is 4.255 -Id 2.255 -It AODVUU -Il 36 -If 0 -Ii 14 -Iv 1 -P aodvuu -Pt 0x9 -Ph 0 -Pd 2 -Pds 4 -Ps 511 -Pl 0.000000 -Pc REPLY 
d -t 0.103482458 -Hs 4 -Hd 2 -Ni 4 -Nx 500.00 -Ny 300.00 -Nz 0.00 -Ne -1.000000 -Nl IFQ -Nw ARP -Ma 0 -Md 0 -Ms c -Mt 800 -Is 4.255 -Id 2.255 -It AODVUU -Il 36 -If 0 -Ii 12 -Iv 1 -P aodvuu -Pt 0x9 -Ph 0 -Pd 2 -Pds 4 -Ps 511 -Pl 0.000000 -Pc REPLY 
s -t 0.108823468 -Hs 4 -Hd 0 -Ni 4 -Nx 500.00 -Ny 300.00 -Nz 0.00 -Ne -1.000000 -Nl RTR -Nw --- -Ma 0 -Md 0 -Ms 0 -Mt 0 -Is 4.255 -Id -1.255 -It AODVUU -Il 48 -If 0 -Ii 4 -Iv 1 -P aodvuu -Pt 0x0 -Ph 3 -Pd 4 -Pds 1 -Ps 255 -Pl 32.000000 -Pc HELLO 
s -t 0.108823468 -Hs 4 -Hd 0 -Ni 4 -Nx 500.00 -Ny 300.00 -Nz 0.00 -Ne -1.000000 -Nl RTR -Nw --- -Ma 0 -Md 0 -Ms 0 -Mt 0 -Is 4.255 -Id -1.255 -It AODVUU -Il 48 -If 0 -Ii 4 -Iv 1 -P aodvuu -Pt 0x0 -Ph 3 -Pd 4 -Pds 1 -Ps 255 -Pl 32.000000 -Pc HELLO 
s -t 0.108823468 -Hs 4 -Hd 0 -Ni 4 -Nx 500.00 -Ny 300.00 -Nz 0.00 -Ne -1.000000 -Nl RTR -Nw --- -Ma 0 -Md 0 -Ms 0 -Mt 0 -Is 4.255 -Id -1.255 -It AODVUU -Il 48 -If 0 -Ii 4 -Iv 1 -P aodvuu -Pt 0x0 -Ph 3 -Pd 4 -Pds 1 -Ps 255 -Pl 32.000000 -Pc HELLO 
r -t 0.109811801 -Hs 5 -Hd 0 -Ni 5 -Nx 600.00 -Ny 300.00 -Nz 0.00 -Ne -1.000000 -Nl RTR -Nw --- -Ma 0 -Md ffffffff -Ms d -Mt 800 -Is 4.255 -Id -1.255 -It AODVUU -Il 48 -If 0 -Ii 4 -Iv 1 -P aodvuu -Pt 0x0 -Ph 3 -Pd 4 -Pds 1 -Ps 255 -Pl 32.000000 -Pc HELLO 
s -t 0.109811801 -Hs 5 -Hd 4 -Ni 5 -Nx 600.00 -Ny 300.00 -Nz 0.00 -Ne -1.000000 -Nl RTR -Nw --- -Ma 0 -Md 0 -Ms 0 -Mt 0 -Is 5.255 -Id 4.255 -It AODVUU -Il 36 -If 0 -Ii 15 -Iv 1 -P aodvuu -Pt 0x9 -Ph 0 -Pd 4 -Pds 5 -Ps 511 -Pl 0.000000 -Pc REPLY 
r -t 0.109812134 -Hs 2 -Hd 0 -Ni 2 -Nx 300.00 -Ny 300.00 -Nz 0.00 -Ne -1.000000 -Nl RTR -Nw --- -Ma 0 -Md ffffffff -Ms d -Mt 800 -Is 4.255 -Id -1.255 -It AODVUU -Il 48 -If 0 -Ii 4 -Iv 1 -P aodvuu -Pt 0x0 -Ph 3 -Pd 4 -Pds 1 -Ps 255 -Pl 32.000000 -Pc HELLO 
s -t 0.109812134 -Hs 2 -Hd 4 -Ni 2 -Nx 300.00 -Ny 300.00 -Nz 0.00 -Ne -1.000000 -Nl RTR -Nw --- -Ma 0 -Md 0 -Ms 0 -Mt 0 -Is 2.255 -Id 4.255 -It AODVUU -Il 36 -If 0 -Ii 16 -Iv 1 -P aodvuu -Pt 0x9 -Ph 0 -Pd 4 -Pds 2 -Ps 511 -Pl 0.000000 -Pc REPLY 
r -t 0.110071801 -Hs 5 -Hd 0 -Ni 5 -Nx 600.00 -Ny 300.00 -Nz 0.00 -Ne -1.000000 -Nl RTR -Nw --- -Ma 0 -Md ffffffff -Ms e -Mt 800 -Is 4.255 -Id -1.255 -It AODVUU -Il 48 -If 0 -Ii 4 -Iv 1 -P aodvuu -Pt 0x0 -Ph 3 -Pd 4 -Pds 1 -Ps 255 -Pl 32.000000 -Pc HELLO 
s -t 0.110071801 -Hs 5 -Hd 4 -Ni 5 -Nx 600.00 -Ny 300.00 -Nz 0.00 -Ne -1.000000 -Nl RTR -Nw --- -Ma 0 -Md 0 -Ms 0 -Mt 0 -Is 5.255 -Id 4.255 -It AODVUU -Il 36 -If 0 -Ii 17 -Iv 1 -P aodvuu -Pt 0x9 -Ph 0 -Pd 4 -Pds 5 -Ps 511 -Pl 0.000000 -Pc REPLY 
r -t 0.110072134 -Hs 2 -Hd 0 -Ni 2 -Nx 300.00 -Ny 300.00 -Nz 0.00 -Ne -1.000000 -Nl RTR -Nw --- -Ma 0 -Md ffffffff -Ms e -Mt 800 -Is 4.255 -Id -1.255 -It AODVUU -Il 48 -If 0 -Ii 4 -Iv 1 -P aodvuu -Pt 0x0 -Ph 3 -Pd 4 -Pds 1 -Ps 255 -Pl 32.000000 -Pc HELLO 
s -t 0.110072134 -Hs 2 -Hd 4 -Ni 2 -Nx 300.00 -Ny 300.00 -Nz 0.00 -Ne -1.000000 -Nl RTR -Nw --- -Ma 0 -Md 0 -Ms 0 -Mt 0 -Is 2.255 -Id 4.255 -It AODVUU -Il 36 -If 0 -Ii 18 -Iv 1 -P aodvuu -Pt 0x9 -Ph 0 -Pd 4 -Pds 2 -Ps 511 -Pl 0.000000 -Pc REPLY 
r -t 0.110333199 -Hs 2 -Hd 2 -Ni 2 -Nx 300.00 -Ny 300.00 -Nz 0.00 -Ne -1.000000 -Nl RTR -Nw --- -Ma 13a -Md 6 -Ms c -Mt 800 -Is 4.255 -Id 2.255 -It AODVUU -Il 36 -If 0 -Ii 14 -Iv 1 -P aodvuu -Pt 0x9 -Ph 0 -Pd 2 -Pds 4 -Ps 511 -Pl 0.000000 -Pc REPLY 
s -t 0.111117614 -Hs 1 -Hd 0 -Ni 1 -Nx 100.00 -Ny 300.00 -Nz 0.00 -Ne -1.000000 -Nl RTR -Nw --- -Ma 0 -Md 0 -Ms 0 -Mt 0 -Is 1.255 -Id -1.255 -It AODVUU -Il 48 -If 0 -Ii 1 -Iv 1 -P aodvuu -Pt 0x0 -Ph 3 -Pd 1 -Pds 1 -Ps 255 -Pl 32.000000 -Pc HELLO 
s -t 0.111117614 -Hs 1 -Hd 0 -Ni 1 -Nx 100.00 -Ny 300.00 -Nz 0.00 -Ne -1.000000 -Nl RTR -Nw --- -Ma 0 -Md 0 -Ms 0 -Mt 0 -Is 1.255 -Id -1.255 -It AODVUU -Il 48 -If 0 -Ii 1 -Iv 1 -P aodvuu -Pt 0x0 -Ph 3 -Pd 1 -Pds 1 -Ps 255 -Pl 32.000000 -Pc HELLO 
s -t 0.111117614 -Hs 1 -Hd 0 -Ni 1 -Nx 100.00 -Ny 300.00 -Nz 0.00 -Ne -1.000000 -Nl RTR -Nw --- -Ma 0 -Md 0 -Ms 0 -Mt 0 -Is 1.255 -Id -1.255 -It AODVUU -Il 48 -If 0 -Ii 1 -Iv 1 -P aodvuu -Pt 0x0 -Ph 3 -Pd 1 -Pds 1 -Ps 255 -Pl 32.000000 -Pc HELLO 
r -t 0.112165948 -Hs 0 -Hd 0 -Ni 0 -Nx 0.00 -Ny 300.00 -Nz 0.00 -Ne -1.000000 -Nl RTR -Nw --- -Ma 0 -Md ffffffff -Ms 4 -Mt 800 -Is 1.255 -Id -1.255 -It AODVUU -Il 48 -If 0 -Ii 1 -Iv 1 -P aodvuu -Pt 0x0 -Ph 3 -Pd 1 -Pds 1 -Ps 255 -Pl 32.000000 -Pc HELLO 
s -t 0.112165948 -Hs 0 -Hd 1 -Ni 0 -Nx 0.00 -Ny 300.00 -Nz 0.00 -Ne -1.000000 -Nl RTR -Nw --- -Ma 0 -Md 0 -Ms 0 -Mt 0 -Is 0.255 -Id 1.255 -It AODVUU -Il 36 -If 0 -Ii 19 -Iv 1 -P aodvuu -Pt 0x9 -Ph 0 -Pd 1 -Pds 0 -Ps 511 -Pl 0.000000 -Pc REPLY 
r -t 0.112166281 -Hs 2 -Hd 0 -Ni 2 -Nx 300.00 -Ny 300.00 -Nz 0.00 -Ne -1.000000 -Nl RTR -Nw --- -Ma 0 -Md ffffffff -Ms 4 -Mt 800 -Is 1.255 -Id -1.255 -It AODVUU -Il 48 -If 0 -Ii 1 -Iv 1 -P aodvuu -Pt 0x0 -Ph 3 -Pd 1 -Pds 1 -Ps 255 -Pl 32.000000 -Pc HELLO 
s -t 0.112166281 -Hs 2 -Hd 1 -Ni 2 -Nx 300.00 -Ny 300.00 -Nz 0.00 -Ne -1.000000 -Nl RTR -Nw --- -Ma 0 -Md 0 -Ms 0 -Mt 0 -Is 2.255 -Id 1.255 -It AODVUU -Il 36 -If 0 -Ii 20 -Iv 1 -P aodvuu -Pt 0x9 -Ph 0 -Pd 1 -Pds 2 -Ps 511 -Pl 0.000000 -Pc REPLY 
r -t 0.112585948 -Hs 0 -Hd 0 -Ni 0 -Nx 0.00 -Ny 300.00 -Nz 0.00 -Ne -1.000000 -Nl RTR -Nw --- -Ma 0 -Md ffffffff -Ms 5 -Mt 800 -Is 1.255 -Id -1.255 -It AODVUU -Il 48 -If 0 -Ii 1 -Iv 1 -P aodvuu -Pt 0x0 -Ph 3 -Pd 1 -Pds 1 -Ps 255 -Pl 32.000000 -Pc HELLO 
s -t 0.112585948 -Hs 0 -Hd 1 -Ni 0 -Nx 0.00 -Ny 300.00 -Nz 0.00 -Ne -1.000000 -Nl RTR -Nw --- -Ma 0 -Md 0 -Ms 0 -Mt 0 -Is 0.255 -Id 1.255 -It AODVUU -Il 36 -If 0 -Ii 21 -Iv 1 -P aodvuu -Pt 0x9 -Ph 0 -Pd 1 -Pds 0 -Ps 511 -Pl 0.000000 -Pc REPLY 
r -t 0.112586281 -Hs 2 -Hd 0 -Ni 2 -Nx 300.00 -Ny 300.00 -Nz 0.00 -Ne -1.000000 -Nl RTR -Nw --- -Ma 0 -Md ffffffff -Ms 5 -Mt 800 -Is 1.255 -Id -1.255 -It AODVUU -Il 48 -If 0 -Ii 1 -Iv 1 -P aodvuu -Pt 0x0 -Ph 3 -Pd 1 -Pds 1 -Ps 255 -Pl 32.000000 -Pc HELLO 
s -t 0.112586281 -Hs 2 -Hd 1 -Ni 2 -Nx 300.00 -Ny 300.00 -Nz 0.00 -Ne -1.000000 -Nl RTR -Nw --- -Ma 0 -Md 0 -Ms 0 -Mt 0 -Is 2.255 -Id 1.255 -It AODVUU -Il 36 -If 0 -Ii 22 -Iv 1 -P aodvuu -Pt 0x9 -Ph 0 -Pd 1 -Pds 2 -Ps 511 -Pl 0.000000 -Pc REPLY 
r -t 0.115493384 -Hs 0 -Hd 0 -Ni 0 -Nx 0.00 -Ny 300.00 -Nz 0.00 -Ne -1.000000 -Nl RTR -Nw --- -Ma 0 -Md ffffffff -Ms 3 -Mt 800 -Is 1.255 -Id -1.255 -It AODVUU -Il 48 -If 0 -Ii 1 -Iv 1 -P aodvuu -Pt 0x0 -Ph 3 -Pd 1 -Pds 1 -Ps 255 -Pl 32.000000 -Pc HELLO 
s -t 0.115493384 -Hs 0 -Hd 1 -Ni 0 -Nx 0.00 -Ny 300.00 -Nz 0.00 -Ne -1.000000 -Nl RTR -Nw --- -Ma 0 -Md 0 -Ms 0 -Mt 0 -Is 0.255 -Id 1.255 -It AODVUU -Il 36 -If 0 -Ii 23 -Iv 1 -P aodvuu -Pt 0x9 -Ph 0 -Pd 1 -Pds 0 -Ps 511 -Pl 0.000000 -Pc REPLY 
r -t 0.115493717 -Hs 2 -Hd 0 -Ni 2 -Nx 300.00 -Ny 300.00 -Nz 0.00 -Ne -1.000000 -Nl RTR -Nw --- -Ma 0 -Md ffffffff -Ms 3 -Mt 800 -Is 1.255 -Id -1.255 -It AODVUU -Il 48 -If 0 -Ii 1 -Iv 1 -P aodvuu -Pt 0x0 -Ph 3 -Pd 1 -Pds 1 -Ps 255 -Pl 32.000000 -Pc HELLO 
s -t 0.115493717 -Hs 2 -Hd 1 -Ni 2 -Nx 300.00 -Ny 300.00 -Nz 0.00 -Ne -1.000000 -Nl RTR -Nw --- -Ma 0 -Md 0 -Ms 0 -Mt 0 -Is 2.255 -Id 1.255 -It AODVUU -Il 36 -If 0 -Ii 24 -Iv 1 -P aodvuu -Pt 0x9 -Ph 0 -Pd 1 -Pds 2 -Ps 511 -Pl 0.000000 -Pc REPLY 
s -t 0.115983109 -Hs 5 -Hd 0 -Ni 5 -Nx 600.00 -Ny 300.00 -Nz 0.00 -Ne -1.000000 -Nl RTR -Nw --- -Ma 0 -Md 0 -Ms 0 -Mt 0 -Is 5.255 -Id -1.255 -It AODVUU -Il 48 -If 0 -Ii 5 -Iv 1 -P aodvuu -Pt 0x0 -Ph 3 -Pd 5 -Pds 1 -Ps 255 -Pl 32.000000 -Pc HELLO 
s -t 0.115983109 -Hs 5 -Hd 0 -Ni 5 -Nx 600.00 -Ny 300.00 -Nz 0.00 -Ne -1.000000 -Nl RTR -Nw --- -Ma 0 -Md 0 -Ms 0 -Mt 0 -Is 5.255 -Id -1.255 -It AODVUU -Il 48 -If 0 -Ii 5 -Iv 1 -P aodvuu -Pt 0x0 -Ph 3 -Pd 5 -Pds 1 -Ps 255 -Pl 32.000000 -Pc HELLO 
s -t 0.115983109 -Hs 5 -Hd 0 -Ni 5 -Nx 600.00 -Ny 300.00 -Nz 0.00 -Ne -1.000000 -Nl RTR -Nw --- -Ma 0 -Md 0 -Ms 0 -Mt 0 -Is 5.255 -Id -1.255 -It AODVUU -Il 48 -If 0 -Ii 5 -Iv 1 -P aodvuu -Pt 0x0 -Ph 3 -Pd 5 -Pds 1 -Ps 255 -Pl 32.000000 -Pc HELLO 
r -t 0.117111442 -Hs 4 -Hd 0 -Ni 4 -Nx 500.00 -Ny 300.00 -Nz 0.00 -Ne -1.000000 -Nl RTR -Nw --- -Ma 0 -Md ffffffff -Ms 10 -Mt 800 -Is 5.255 -Id -1.255 -It AODVUU -Il 48 -If 0 -Ii 5 -Iv 1 -P aodvuu -Pt 0x0 -Ph 3 -Pd 5 -Pds 1 -Ps 255 -Pl 32.000000 -Pc HELLO 
s -t 0.117111442 -Hs 4 -Hd 5 -Ni 4 -Nx 500.00 -Ny 300.00 -Nz 0.00 -Ne -1.000000 -Nl RTR -Nw --- -Ma 0 -Md 0 -Ms 0 -Mt 0 -Is 4.255 -Id 5.255 -It AODVUU -Il 36 -If 0 -Ii 25 -Iv 1 -P aodvuu -Pt 0x9 -Ph 0 -Pd 5 -Pds 4 -Ps 511 -Pl 0.000000 -Pc REPLY 
r -t 0.117211442 -Hs 4 -Hd 0 -Ni 4 -Nx 500.00 -Ny 300.00 -Nz 0.00 -Ne -1.000000 -Nl RTR -Nw --- -Ma 0 -Md ffffffff -Ms 11 -Mt 800 -Is 5.255 -Id -1.255 -It AODVUU -Il 48 -If 0 -Ii 5 -Iv 1 -P aodvuu -Pt 0x0 -Ph 3 -Pd 5 -Pds 1 -Ps 255 -Pl 32.000000 -Pc HELLO 
s -t 0.117211442 -Hs 4 -Hd 5 -Ni 4 -Nx 500.00 -Ny 300.00 -Nz 0.00 -Ne -1.000000 -Nl RTR -Nw --- -Ma 0 -Md 0 -Ms 0 -Mt 0 -Is 4.255 -Id 5.255 -It AODVUU -Il 36 -If 0 -Ii 26 -Iv 1 -P aodvuu -Pt 0x9 -Ph 0 -Pd 5 -Pds 4 -Ps 511 -Pl 0.000000 -Pc REPLY 
d -t 0.117211442 -Hs 4 -Hd 5 -Ni 4 -Nx 500.00 -Ny 300.00 -Nz 0.00 -Ne -1.000000 -Nl IFQ -Nw ARP -Ma 0 -Md 0 -Ms c -Mt 800 -Is 4.255 -Id 5.255 -It AODVUU -Il 36 -If 0 -Ii 25 -Iv 1 -P aodvuu -Pt 0x9 -Ph 0 -Pd 5 -Pds 4 -Ps 511 -Pl 0.000000 -Pc REPLY 
r -t 0.119367940 -Hs 1 -Hd 1 -Ni 1 -Nx 100.00 -Ny 300.00 -Nz 0.00 -Ne -1.000000 -Nl RTR -Nw --- -Ma 13a -Md 3 -Ms 0 -Mt 800 -Is 0.255 -Id 1.255 -It AODVUU -Il 36 -If 0 -Ii 21 -Iv 1 -P aodvuu -Pt 0x9 -Ph 0 -Pd 1 -Pds 0 -Ps 511 -Pl 0.000000 -Pc REPLY 
r -t 0.120784977 -Hs 1 -Hd 1 -Ni 1 -Nx 100.00 -Ny 300.00 -Nz 0.00 -Ne -1.000000 -Nl RTR -Nw --- -Ma 13a -Md 3 -Ms 0 -Mt 800 -Is 0.255 -Id 1.255 -It AODVUU -Il 36 -If 0 -Ii 23 -Iv 1 -P aodvuu -Pt 0x9 -Ph 0 -Pd 1 -Pds 0 -Ps 511 -Pl 0.000000 -Pc REPLY 
r -t 0.122181680 -Hs 0 -Hd 0 -Ni 0 -Nx 0.00 -Ny 300.00 -Nz 0.00 -Ne -1.000000 -Nl RTR -Nw --- -Ma 13a -Md 0 -Ms 3 -Mt 800 -Is 1.255 -Id 0.255 -It AODVUU -Il 36 -If 0 -Ii 8 -Iv 1 -P aodvuu -Pt 0x9 -Ph 0 -Pd 0 -Pds 1 -Ps 511 -Pl 0.000000 -Pc REPLY 
r -t 0.124298384 -Hs 1 -Hd 1 -Ni 1 -Nx 100.00 -Ny 300.00 -Nz 0.00 -Ne -1.000000 -Nl RTR -Nw --- -Ma 13a -Md 3 -Ms 6 -Mt 800 -Is 2.255 -Id 1.255 -It AODVUU -Il 36 -If 0 -Ii 24 -Iv 1 -P aodvuu -Pt 0x9 -Ph 0 -Pd 1 -Pds 2 -Ps 511 -Pl 0.000000 -Pc REPLY 
r -t 0.126633421 -Hs 1 -Hd 1 -Ni 1 -Nx 100.00 -Ny 300.00 -Nz 0.00 -Ne -1.000000 -Nl RTR -Nw --- -Ma 13a -Md 3 -Ms 0 -Mt 800 -Is 0.255 -Id 1.255 -It AODVUU -Il 36 -If 0 -Ii 19 -Iv 1 -P aodvuu -Pt 0x9 -Ph 0 -Pd 1 -Pds 0 -Ps 511 -Pl 0.000000 -Pc REPLY 
r -t 0.129406977 -Hs 1 -Hd 1 -Ni 1 -Nx 100.00 -Ny 300.00 -Nz 0.00 -Ne -1.000000 -Nl RTR -Nw --- -Ma 13a -Md 3 -Ms 6 -Mt 800 -Is 2.255 -Id 1.255 -It AODVUU -Il 36 -If 0 -Ii 22 -Iv 1 -P aodvuu -Pt 0x9 -Ph 0 -Pd 1 -Pds 2 -Ps 511 -Pl 0.000000 -Pc REPLY 
r -t 0.134125866 -Hs 1 -Hd 1 -Ni 1 -Nx 100.00 -Ny 300.00 -Nz 0.00 -Ne -1.000000 -Nl RTR -Nw --- -Ma 13a -Md 3 -Ms 6 -Mt 800 -Is 2.255 -Id 1.255 -It AODVUU -Il 36 -If 0 -Ii 20 -Iv 1 -P aodvuu -Pt 0x9 -Ph 0 -Pd 1 -Pds 2 -Ps 511 -Pl 0.000000 -Pc REPLY 
r -t 0.135584236 -Hs 4 -Hd 4 -Ni 4 -Nx 500.00 -Ny 300.00 -Nz 0.00 -Ne -1.000000 -Nl RTR -Nw --- -Ma 13a -Md c -Ms 6 -Mt 800 -Is 2.255 -Id 4.255 -It AODVUU -Il 36 -If 0 -Ii 18 -Iv 1 -P aodvuu -Pt 0x9 -Ph 0 -Pd 4 -Pds 2 -Ps 511 -Pl 0.000000 -Pc REPLY 
r -t 0.138906606 -Hs 4 -Hd 4 -Ni 4 -Nx 500.00 -Ny 300.00 -Nz 0.00 -Ne -1.000000 -Nl RTR -Nw --- -Ma 13a -Md c -Ms f -Mt 800 -Is 5.255 -Id 4.255 -It AODVUU -Il 36 -If 0 -Ii 15 -Iv 1 -P aodvuu -Pt 0x9 -Ph 0 -Pd 4 -Pds 5 -Ps 511 -Pl 0.000000 -Pc REPLY 
r -t 0.140319273 -Hs 4 -Hd 0 -Ni 4 -Nx 500.00 -Ny 300.00 -Nz 0.00 -Ne -1.000000 -Nl RTR -Nw --- -Ma 0 -Md ffffffff -Ms f -Mt 800 -Is 5.255 -Id -1.255 -It AODVUU -Il 48 -If 0 -Ii 5 -Iv 1 -P aodvuu -Pt 0x0 -Ph 3 -Pd 5 -Pds 1 -Ps 255 -Pl 32.000000 -Pc HELLO 
s -t 0.140319273 -Hs 4 -Hd 5 -Ni 4 -Nx 500.00 -Ny 300.00 -Nz 0.00 -Ne -1.000000 -Nl RTR -Nw --- -Ma 0 -Md 0 -Ms 0 -Mt 0 -Is 4.255 -Id 5.255 -It AODVUU -Il 36 -If 0 -Ii 27 -Iv 1 -P aodvuu -Pt 0x9 -Ph 0 -Pd 5 -Pds 4 -Ps 511 -Pl 0.000000 -Pc REPLY 
d -t 0.140319273 -Hs 4 -Hd 5 -Ni 4 -Nx 500.00 -Ny 300.00 -Nz 0.00 -Ne -1.000000 -Nl IFQ -Nw ARP -Ma 0 -Md 0 -Ms c -Mt 800 -Is 4.255 -Id 5.255 -It AODVUU -Il 36 -If 0 -Ii 26 -Iv 1 -P aodvuu -Pt 0x9 -Ph 0 -Pd 5 -Pds 4 -Ps 511 -Pl 0.000000 -Pc REPLY 
r -t 0.141401643 -Hs 4 -Hd 4 -Ni 4 -Nx 500.00 -Ny 300.00 -Nz 0.00 -Ne -1.000000 -Nl RTR -Nw --- -Ma 13a -Md c -Ms f -Mt 800 -Is 5.255 -Id 4.255 -It AODVUU -Il 36 -If 0 -Ii 17 -Iv 1 -P aodvuu -Pt 0x9 -Ph 0 -Pd 4 -Pds 5 -Ps 511 -Pl 0.000000 -Pc REPLY 
r -t 0.145461532 -Hs 5 -Hd 5 -Ni 5 -Nx 600.00 -Ny 300.00 -Nz 0.00 -Ne -1.000000 -Nl RTR -Nw --- -Ma 13a -Md f -Ms c -Mt 800 -Is 4.255 -Id 5.255 -It AODVUU -Il 36 -If 0 -Ii 27 -Iv 1 -P aodvuu -Pt 0x9 -Ph 0 -Pd 5 -Pds 4 -Ps 511 -Pl 0.000000 -Pc REPLY 
r -t 0.152548768 -Hs 4 -Hd 4 -Ni 4 -Nx 500.00 -Ny 300.00 -Nz 0.00 -Ne -1.000000 -Nl RTR -Nw --- -Ma 13a -Md c -Ms 6 -Mt 800 -Is 2.255 -Id 4.255 -It AODVUU -Il 36 -If 0 -Ii 16 -Iv 1 -P aodvuu -Pt 0x9 -Ph 0 -Pd 4 -Pds 2 -Ps 511 -Pl 0.000000 -Pc REPLY 
r -t 0.155812990 -Hs 2 -Hd 2 -Ni 2 -Nx 300.00 -Ny 300.00 -Nz 0.00 -Ne -1.000000 -Nl RTR -Nw --- -Ma 13a -Md 6 -Ms 3 -Mt 800 -Is 1.255 -Id 2.255 -It AODVUU -Il 36 -If 0 -Ii 13 -Iv 1 -P aodvuu -Pt 0x9 -Ph 0 -Pd 2 -Pds 1 -Ps 511 -Pl 0.000000 -Pc REPLY 
M 1.00000 2 (300.00, 300.00, 0.00), (300.00, 600.00), 100.00
s -t 1.000000000 -Hs 0 -Hd -2 -Ni 0 -Nx 0.00 -Ny 300.00 -Nz 0.00 -Ne -1.000000 -Nl AGT -Nw --- -Ma 0 -Md 0 -Ms 0 -Mt 0 -Is 0.0 -Id 5.0 -It cbr -Il 1000 -If 0 -Ii 28 -Iv 32 -Pn cbr -Pi 0 -Pf 0 -Po 0 
r -t 1.000000000 -Hs 0 -Hd -2 -Ni 0 -Nx 0.00 -Ny 300.00 -Nz 0.00 -Ne -1.000000 -Nl RTR -Nw --- -Ma 0 -Md 0 -Ms 0 -Mt 0 -Is 0.0 -Id 5.0 -It cbr -Il 1000 -If 0 -Ii 28 -Iv 32 -Pn cbr -Pi 0 -Pf 0 -Po 0 
s -t 1.001668598 -Hs 0 -Hd 0 -Ni 0 -Nx 0.00 -Ny 300.00 -Nz 0.00 -Ne -1.000000 -Nl RTR -Nw --- -Ma 0 -Md 0 -Ms 0 -Mt 0 -Is 0.255 -Id -1.255 -It AODVUU -Il 52 -If 0 -Ii 29 -Iv 1 -P aodvuu -Pt 0x1 -Ph 0 -Pb 0 -Pd 5 -Pds 0 -Ps 0 -Pss 2 -Pc REQUEST 
s -t 1.001668598 -Hs 0 -Hd 0 -Ni 0 -Nx 0.00 -Ny 300.00 -Nz 0.00 -Ne -1.000000 -Nl RTR -Nw --- -Ma 0 -Md 0 -Ms 0 -Mt 0 -Is 0.255 -Id -1.255 -It AODVUU -Il 52 -If 0 -Ii 29 -Iv 1 -P aodvuu -Pt 0x1 -Ph 0 -Pb 0 -Pd 5 -Pds 0 -Ps 0 -Pss 2 -Pc REQUEST 
s -t 1.001668598 -Hs 0 -Hd 0 -Ni 0 -Nx 0.00 -Ny 300.00 -Nz 0.00 -Ne -1.000000 -Nl RTR -Nw --- -Ma 0 -Md 0 -Ms 0 -Mt 0 -Is 0.255 -Id -1.255 -It AODVUU -Il 52 -If 0 -Ii 29 -Iv 1 -P aodvuu -Pt 0x1 -Ph 0 -Pb 0 -Pd 5 -Pds 0 -Ps 0 -Pss 2 -Pc REQUEST 
r -t 1.002808931 -Hs 1 -Hd 0 -Ni 1 -Nx 100.00 -Ny 300.00 -Nz 0.00 -Ne -1.000000 -Nl RTR -Nw --- -Ma 0 -Md ffffffff -Ms 1 -Mt 800 -Is 0.255 -Id -1.255 -It AODVUU -Il 52 -If 0 -Ii 29 -Iv 1 -P aodvuu -Pt 0x1 -Ph 0 -Pb 0 -Pd 5 -Pds 0 -Ps 0 -Pss 2 -Pc REQUEST 
r -t 1.002828931 -Hs 1 -Hd 0 -Ni 1 -Nx 100.00 -Ny 300.00 -Nz 0.00 -Ne -1.000000 -Nl RTR -Nw --- -Ma 0 -Md ffffffff -Ms 0 -Mt 800 -Is 0.255 -Id -1.255 -It AODVUU -Il 52 -If 0 -Ii 29 -Iv 1 -P aodvuu -Pt 0x1 -Ph 0 -Pb 0 -Pd 5 -Pds 0 -Ps 0 -Pss 2 -Pc REQUEST 
r -t 1.003088931 -Hs 1 -Hd 0 -Ni 1 -Nx 100.00 -Ny 300.00 -Nz 0.00 -Ne -1.000000 -Nl RTR -Nw --- -Ma 0 -Md ffffffff -Ms 2 -Mt 800 -Is 0.255 -Id -1.255 -It AODVUU -Il 52 -If 0 -Ii 29 -Iv 1 -P aodvuu -Pt 0x1 -Ph 0 -Pb 0 -Pd 5 -Pds 0 -Ps 0 -Pss 2 -Pc REQUEST 
s -t 1.100067005 -Hs 0 -Hd 0 -Ni 0 -Nx 0.00 -Ny 300.00 -Nz 0.00 -Ne -1.000000 -Nl RTR -Nw --- -Ma 0 -Md 0 -Ms 0 -Mt 0 -Is 0.255 -Id -1.255 -It AODVUU -Il 48 -If 0 -Ii 30 -Iv 1 -P aodvuu -Pt 0x0 -Ph 3 -Pd 0 -Pds 2 -Ps 32767 -Pl 32.000000 -Pc HELLO 
s -t 1.100067005 -Hs 0 -Hd 0 -Ni 0 -Nx 0.00 -Ny 300.00 -Nz 0.00 -Ne -1.000000 -Nl RTR -Nw --- -Ma 0 -Md 0 -Ms 0 -Mt 0 -Is 0.255 -Id -1.255 -It AODVUU -Il 48 -If 0 -Ii 30 -Iv 1 -P aodvuu -Pt 0x0 -Ph 3 -Pd 0 -Pds 2 -Ps 32767 -Pl 32.000000 -Pc HELLO 
s -t 1.100067005 -Hs 0 -Hd 0 -Ni 0 -Nx 0.00 -Ny 300.00 -Nz 0.00 -Ne -1.000000 -Nl RTR -Nw --- -Ma 0 -Md 0 -Ms 0 -Mt 0 -Is 0.255 -Id -1.255 -It AODVUU -Il 48 -If 0 -Ii 30 -Iv 1 -P aodvuu -Pt 0x0 -Ph 3 -Pd 0 -Pds 2 -Ps 32767 -Pl 32.000000 -Pc HELLO 
r -t 1.101175339 -Hs 1 -Hd 0 -Ni 1 -Nx 100.00 -Ny 300.00 -Nz 0.00 -Ne -1.000000 -Nl RTR -Nw --- -Ma 0 -Md ffffffff -Ms 2 -Mt 800 -Is 0.255 -Id -1.255 -It AODVUU -Il 48 -If 0 -Ii 30 -Iv 1 -P aodvuu -Pt 0x0 -Ph 3 -Pd 0 -Pds 2 -Ps 32767 -Pl 32.000000 -Pc HELLO 
s -t 1.101175339 -Hs 1 -Hd 0 -Ni 1 -Nx 100.00 -Ny 300.00 -Nz 0.00 -Ne -1.000000 -Nl RTR -Nw --- -Ma 0 -Md 0 -Ms 0 -Mt 0 -Is 1.255 -Id 0.255 -It AODVUU -Il 36 -If 0 -Ii 36 -Iv 1 -P aodvuu -Pt 0x9 -Ph 0 -Pd 0 -Pds 1 -Ps 511 -Pl 0.000000 -Pc REPLY 
r -t 1.101335339 -Hs 1 -Hd 0 -Ni 1 -Nx 100.00 -Ny 300.00 -Nz 0.00 -Ne -1.000000 -Nl RTR -Nw --- -Ma 0 -Md ffffffff -Ms 1 -Mt 800 -Is 0.255 -Id -1.255 -It AODVUU -Il 48 -If 0 -Ii 30 -Iv 1 -P aodvuu -Pt 0x0 -Ph 3 -Pd 0 -Pds 2 -Ps 32767 -Pl 32.000000 -Pc HELLO 
s -t 1.101335339 -Hs 1 -Hd 0 -Ni 1 -Nx 100.00 -Ny 300.00 -Nz 0.00 -Ne -1.000000 -Nl RTR -Nw --- -Ma 0 -Md 0 -Ms 0 -Mt 0 -Is 1.255 -Id 0.255 -It AODVUU -Il 36 -If 0 -Ii 37 -Iv 1 -P aodvuu -Pt 0x9 -Ph 0 -Pd 0 -Pds 1 -Ps 511 -Pl 0.000000 -Pc REPLY 
r -t 1.101515339 -Hs 1 -Hd 0 -Ni 1 -Nx 100.00 -Ny 300.00 -Nz 0.00 -Ne -1.000000 -Nl RTR -Nw --- -Ma 0 -Md ffffffff -Ms 0 -Mt 800 -Is 0.255 -Id -1.255 -It AODVUU -Il 48 -If 0 -Ii 30 -Iv 1 -P aodvuu -Pt 0x0 -Ph 3 -Pd 0 -Pds 2 -Ps 32767 -Pl 32.000000 -Pc HELLO 
s -t 1.101515339 -Hs 1 -Hd 0 -Ni 1 -Nx 100.00 -Ny 300.00 -Nz 0.00 -Ne -1.000000 -Nl RTR -Nw --- -Ma 0 -Md 0 -Ms 0 -Mt 0 -Is 1.255 -Id 0.255 -It AODVUU -Il 36 -If 0 -Ii 38 -Iv 1 -P aodvuu -Pt 0x9 -Ph 0 -Pd 0 -Pds 1 -Ps 511 -Pl 0.000000 -Pc REPLY 
r -t 1.102798042 -Hs 0 -Hd 0 -Ni 0 -Nx 0.00 -Ny 300.00 -Nz 0.00 -Ne -1.000000 -Nl RTR -Nw --- -Ma 13a -Md 0 -Ms 3 -Mt 800 -Is 1.255 -Id 0.255 -It AODVUU -Il 36 -If 0 -Ii 36 -Iv 1 -P aodvuu -Pt 0x9 -Ph 0 -Pd 0 -Pds 1 -Ps 511 -Pl 0.000000 -Pc REPLY 
s -t 1.103425371 -Hs 2 -Hd 0 -Ni 2 -Nx 300.00 -Ny 310.34 -Nz 0.00 -Ne -1.000000 -Nl RTR -Nw --- -Ma 0 -Md 0 -Ms 0 -Mt 0 -Is 2.255 -Id -1.255 -It AODVUU -Il 48 -If 0 -Ii 35 -Iv 1 -P aodvuu -Pt 0x0 -Ph 0 -Pd 2 -Pds 1 -Ps 1065005823 -Pl 2707092348.000000 -Pc HELLO 
s -t 1.103425371 -Hs 2 -Hd 0 -Ni 2 -Nx 300.00 -Ny 310.34 -Nz 0.00 -Ne -1.000000 -Nl RTR -Nw --- -Ma 0 -Md 0 -Ms 0 -Mt 0 -Is 2.255 -Id -1.255 -It AODVUU -Il 48 -If 0 -Ii 35 -Iv 1 -P aodvuu -Pt 0x0 -Ph 0 -Pd 2 -Pds 1 -Ps 1065005823 -Pl 2707092348.000000 -Pc HELLO 
s -t 1.103425371 -Hs 2 -Hd 0 -Ni 2 -Nx 300.00 -Ny 310.34 -Nz 0.00 -Ne -1.000000 -Nl RTR -Nw --- -Ma 0 -Md 0 -Ms 0 -Mt 0 -Is 2.255 -Id -1.255 -It AODVUU -Il 48 -If 0 -Ii 35 -Iv 1 -P aodvuu -Pt 0x0 -Ph 0 -Pd 2 -Pds 1 -Ps 1065005823 -Pl 2707092348.000000 -Pc HELLO 
r -t 1.104195079 -Hs 0 -Hd 0 -Ni 0 -Nx 0.00 -Ny 300.00 -Nz 0.00 -Ne -1.000000 -Nl RTR -Nw --- -Ma 13a -Md 0 -Ms 3 -Mt 800 -Is 1.255 -Id 0.255 -It AODVUU -Il 36 -If 0 -Ii 38 -Iv 1 -P aodvuu -Pt 0x9 -Ph 0 -Pd 0 -Pds 1 -Ps 511 -Pl 0.000000 -Pc REPLY 
r -t 1.104794038 -Hs 1 -Hd 0 -Ni 1 -Nx 100.00 -Ny 300.00 -Nz 0.00 -Ne -1.000000 -Nl RTR -Nw --- -Ma 0 -Md ffffffff -Ms 8 -Mt 800 -Is 2.255 -Id -1.255 -It AODVUU -Il 48 -If 0 -Ii 35 -Iv 1 -P aodvuu -Pt 0x0 -Ph 0 -Pd 2 -Pds 1 -Ps 1065005823 -Pl 2707092348.000000 -Pc HELLO 
r -t 1.104794038 -Hs 4 -Hd 0 -Ni 4 -Nx 500.00 -Ny 300.00 -Nz 0.00 -Ne -1.000000 -Nl RTR -Nw --- -Ma 0 -Md ffffffff -Ms 8 -Mt 800 -Is 2.255 -Id -1.255 -It AODVUU -Il 48 -If 0 -Ii 35 -Iv 1 -P aodvuu -Pt 0x0 -Ph 0 -Pd 2 -Pds 1 -Ps 1065005823 -Pl 2707092348.000000 -Pc HELLO 
s -t 1.104794038 -Hs 1 -Hd 2 -Ni 1 -Nx 100.00 -Ny 300.00 -Nz 0.00 -Ne -1.000000 -Nl RTR -Nw --- -Ma 0 -Md 0 -Ms 0 -Mt 0 -Is 1.255 -Id 2.255 -It AODVUU -Il 36 -If 0 -Ii 39 -Iv 1 -P aodvuu -Pt 0x9 -Ph 0 -Pd 2 -Pds 1 -Ps 511 -Pl 0.000000 -Pc REPLY 
s -t 1.104794038 -Hs 4 -Hd 2 -Ni 4 -Nx 500.00 -Ny 300.00 -Nz 0.00 -Ne -1.000000 -Nl RTR -Nw --- -Ma 0 -Md 0 -Ms 0 -Mt 0 -Is 4.255 -Id 2.255 -It AODVUU -Il 36 -If 0 -Ii 40 -Iv 1 -P aodvuu -Pt 0x9 -Ph 0 -Pd 2 -Pds 4 -Ps 511 -Pl 0.000000 -Pc REPLY 
r -t 1.104974038 -Hs 1 -Hd 0 -Ni 1 -Nx 100.00 -Ny 300.00 -Nz 0.00 -Ne -1.000000 -Nl RTR -Nw --- -Ma 0 -Md ffffffff -Ms 7 -Mt 800 -Is 2.255 -Id -1.255 -It AODVUU -Il 48 -If 0 -Ii 35 -Iv 1 -P aodvuu -Pt 0x0 -Ph 0 -Pd 2 -Pds 1 -Ps 1065005823 -Pl 2707092348.000000 -Pc HELLO 
r -t 1.104974038 -Hs 4 -Hd 0 -Ni 4 -Nx 500.00 -Ny 300.00 -Nz 0.00 -Ne -1.000000 -Nl RTR -Nw --- -Ma 0 -Md ffffffff -Ms 7 -Mt 800 -Is 2.255 -Id -1.255 -It AODVUU -Il 48 -If 0 -Ii 35 -Iv 1 -P aodvuu -Pt 0x0 -Ph 0 -Pd 2 -Pds 1 -Ps 1065005823 -Pl 2707092348.000000 -Pc HELLO 
s -t 1.104974038 -Hs 1 -Hd 2 -Ni 1 -Nx 100.00 -Ny 300.00 -Nz 0.00 -Ne -1.000000 -Nl RTR -Nw --- -Ma 0 -Md 0 -Ms 0 -Mt 0 -Is 1.255 -Id 2.255 -It AODVUU -Il 36 -If 0 -Ii 41 -Iv 1 -P aodvuu -Pt 0x9 -Ph 0 -Pd 2 -Pds 1 -Ps 511 -Pl 0.000000 -Pc REPLY 
s -t 1.104974038 -Hs 4 -Hd 2 -Ni 4 -Nx 500.00 -Ny 300.00 -Nz 0.00 -Ne -1.000000 -Nl RTR -Nw --- -Ma 0 -Md 0 -Ms 0 -Mt 0 -Is 4.255 -Id 2.255 -It AODVUU -Il 36 -If 0 -Ii 42 -Iv 1 -P aodvuu -Pt 0x9 -Ph 0 -Pd 2 -Pds 4 -Ps 511 -Pl 0.000000 -Pc REPLY 
r -t 1.105552116 -Hs 0 -Hd 0 -Ni 0 -Nx 0.00 -Ny 300.00 -Nz 0.00 -Ne -1.000000 -Nl RTR -Nw --- -Ma 13a -Md 0 -Ms 3 -Mt 800 -Is 1.255 -Id 0.255 -It AODVUU -Il 36 -If 0 -Ii 37 -Iv 1 -P aodvuu -Pt 0x9 -Ph 0 -Pd 0 -Pds 1 -Ps 511 -Pl 0.000000 -Pc REPLY 
s -t 1.106434696 -Hs 3 -Hd 0 -Ni 3 -Nx 300.00 -Ny 0.00 -Nz 0.00 -Ne -1.000000 -Nl RTR -Nw --- -Ma 0 -Md 0 -Ms 0 -Mt 0 -Is 3.255 -Id -1.255 -It AODVUU -Il 48 -If 0 -Ii 31 -Iv 1 -P aodvuu -Pt 0x0 -Ph 0 -Pd 3 -Pds 1 -Ps 1065005823 -Pl 2707092348.000000 -Pc HELLO 
s -t 1.106434696 -Hs 3 -Hd 0 -Ni 3 -Nx 300.00 -Ny 0.00 -Nz 0.00 -Ne -1.000000 -Nl RTR -Nw --- -Ma 0 -Md 0 -Ms 0 -Mt 0 -Is 3.255 -Id -1.255 -It AODVUU -Il 48 -If 0 -Ii 31 -Iv 1 -P aodvuu -Pt 0x0 -Ph 0 -Pd 3 -Pds 1 -Ps 1065005823 -Pl 2707092348.000000 -Pc HELLO 
s -t 1.106434696 -Hs 3 -Hd 0 -Ni 3 -Nx 300.00 -Ny 0.00 -Nz 0.00 -Ne -1.000000 -Nl RTR -Nw --- -Ma 0 -Md 0 -Ms 0 -Mt 0 -Is 3.255 -Id -1.255 -It AODVUU -Il 48 -If 0 -Ii 31 -Iv 1 -P aodvuu -Pt 0x0 -Ph 0 -Pd 3 -Pds 1 -Ps 1065005823 -Pl 2707092348.000000 -Pc HELLO 
r -t 1.106910156 -Hs 2 -Hd 2 -Ni 2 -Nx 300.00 -Ny 310.69 -Nz 0.00 -Ne -1.000000 -Nl RTR -Nw --- -Ma 13a -Md 6 -Ms 3 -Mt 800 -Is 1.255 -Id 2.255 -It AODVUU -Il 36 -If 0 -Ii 41 -Iv 1 -P aodvuu -Pt 0x9 -Ph 0 -Pd 2 -Pds 1 -Ps 511 -Pl 0.000000 -Pc REPLY 