n -t * -s 0  -x 0 -y 300 -Z 0 -z 10  -v circle -c black
n -t * -s 1  -x 100 -y 300 -Z 0 -z 10  -v circle -c black
n -t * -s 2  -x 300 -y 300 -Z 0 -z 10  -v circle -c black
n -t * -s 3  -x 300 -y 0 -Z 0 -z 10  -v circle -c black
n -t * -s 4  -x 500 -y 300 -Z 0 -z 10  -v circle -c black
n -t * -s 5  -x 600 -y 300 -Z 0 -z 10  -v circle -c black
V -t * -v 1.0a5 -a 0
W -t * -x 1000 -y 1000
A -t * -n 1 -p 0 -o 0x7fffffff -c 30 -a 1
A -t * -h 1 -m 1073741823 -s 0
+ -t 0.100006792 -s 0 -d 0 -p AODVUU -e 48 -c 2 -a 0 -i 0 -k RTR 
- -t 0.100006792 -s 0 -d 0 -p AODVUU -e 48 -c 2 -a 0 -i 0 -k RTR
h -t 0.100006792 -s 0 -d 0 -p AODVUU -e 48 -c 2 -a 0 -i 0 -k RTR
+ -t 0.100006792 -s 0 -d 0 -p AODVUU -e 48 -c 2 -a 0 -i 0 -k RTR 
- -t 0.100006792 -s 0 -d 0 -p AODVUU -e 48 -c 2 -a 0 -i 0 -k RTR
h -t 0.100006792 -s 0 -d 0 -p AODVUU -e 48 -c 2 -a 0 -i 0 -k RTR
+ -t 0.100006792 -s 0 -d 0 -p AODVUU -e 48 -c 2 -a 0 -i 0 -k RTR 
- -t 0.100006792 -s 0 -d 0 -p AODVUU -e 48 -c 2 -a 0 -i 0 -k RTR
h -t 0.100006792 -s 0 -d 0 -p AODVUU -e 48 -c 2 -a 0 -i 0 -k RTR
+ -t 0.100284093 -s 2 -d 0 -p AODVUU -e 48 -c 2 -a 0 -i 2 -k RTR 
- -t 0.100284093 -s 2 -d 0 -p AODVUU -e 48 -c 2 -a 0 -i 2 -k RTR
h -t 0.100284093 -s 2 -d 0 -p AODVUU -e 48 -c 2 -a 0 -i 2 -k RTR
+ -t 0.100284093 -s 2 -d 0 -p AODVUU -e 48 -c 2 -a 0 -i 2 -k RTR 
- -t 0.100284093 -s 2 -d 0 -p AODVUU -e 48 -c 2 -a 0 -i 2 -k RTR
h -t 0.100284093 -s 2 -d 0 -p AODVUU -e 48 -c 2 -a 0 -i 2 -k RTR
+ -t 0.100284093 -s 2 -d 0 -p AODVUU -e 48 -c 2 -a 0 -i 2 -k RTR 
- -t 0.100284093 -s 2 -d 0 -p AODVUU -e 48 -c 2 -a 0 -i 2 -k RTR
h -t 0.100284093 -s 2 -d 0 -p AODVUU -e 48 -c 2 -a 0 -i 2 -k RTR
r -t 0.101115125 -s 1 -d 0 -p AODVUU -e 48 -c 2 -a 0 -i 0 -k RTR
+ -t 0.101115125 -s 1 -d 0 -p AODVUU -e 36 -c 2 -a 0 -i 6 -k RTR 
- -t 0.101115125 -s 1 -d 0 -p AODVUU -e 36 -c 2 -a 0 -i 6 -k RTR
h -t 0.101115125 -s 1 -d 0 -p AODVUU -e 36 -c 2 -a 0 -i 6 -k RTR
r -t 0.101155125 -s 1 -d 0 -p AODVUU -e 48 -c 2 -a 0 -i 0 -k RTR
+ -t 0.101155125 -s 1 -d 0 -p AODVUU -e 36 -c 2 -a 0 -i 7 -k RTR 
- -t 0.101155125 -s 1 -d 0 -p AODVUU -e 36 -c 2 -a 0 -i 7 -k RTR
h -t 0.101155125 -s 1 -d 0 -p AODVUU -e 36 -c 2 -a 0 -i 7 -k RTR
d -t 0.101155125 -s 1 -d 0 -p AODVUU -e 36 -c 2 -a 0 -i 6 -k IFQ
r -t 0.101195125 -s 1 -d 0 -p AODVUU -e 48 -c 2 -a 0 -i 0 -k RTR
+ -t 0.101195125 -s 1 -d 0 -p AODVUU -e 36 -c 2 -a 0 -i 8 -k RTR 
- -t 0.101195125 -s 1 -d 0 -p AODVUU -e 36 -c 2 -a 0 -i 8 -k RTR
h -t 0.101195125 -s 1 -d 0 -p AODVUU -e 36 -c 2 -a 0 -i 8 -k RTR
d -t 0.101195125 -s 1 -d 0 -p AODVUU -e 36 -c 2 -a 0 -i 7 -k IFQ
+ -t 0.101762453 -s 3 -d 0 -p AODVUU -e 48 -c 2 -a 0 -i 3 -k RTR 
- -t 0.101762453 -s 3 -d 0 -p AODVUU -e 48 -c 2 -a 0 -i 3 -k RTR
h -t 0.101762453 -s 3 -d 0 -p AODVUU -e 48 -c 2 -a 0 -i 3 -k RTR
+ -t 0.101762453 -s 3 -d 0 -p AODVUU -e 48 -c 2 -a 0 -i 3 -k RTR 
- -t 0.101762453 -s 3 -d 0 -p AODVUU -e 48 -c 2 -a 0 -i 3 -k RTR
h -t 0.101762453 -s 3 -d 0 -p AODVUU -e 48 -c 2 -a 0 -i 3 -k RTR
+ -t 0.101762453 -s 3 -d 0 -p AODVUU -e 48 -c 2 -a 0 -i 3 -k RTR 
- -t 0.101762453 -s 3 -d 0 -p AODVUU -e 48 -c 2 -a 0 -i 3 -k RTR
h -t 0.101762453 -s 3 -d 0 -p AODVUU -e 48 -c 2 -a 0 -i 3 -k RTR
r -t 0.102678458 -s 1 -d 0 -p AODVUU -e 48 -c 2 -a 0 -i 2 -k RTR
r -t 0.102678458 -s 4 -d 0 -p AODVUU -e 48 -c 2 -a 0 -i 2 -k RTR
+ -t 0.102678458 -s 1 -d 2 -p AODVUU -e 36 -c 2 -a 0 -i 9 -k RTR 
- -t 0.102678458 -s 1 -d 2 -p AODVUU -e 36 -c 2 -a 0 -i 9 -k RTR
h -t 0.102678458 -s 1 -d 2 -p AODVUU -e 36 -c 2 -a 0 -i 9 -k RTR
+ -t 0.102678458 -s 4 -d 2 -p AODVUU -e 36 -c 2 -a 0 -i 10 -k RTR 
- -t 0.102678458 -s 4 -d 2 -p AODVUU -e 36 -c 2 -a 0 -i 10 -k RTR
h -t 0.102678458 -s 4 -d 2 -p AODVUU -e 36 -c 2 -a 0 -i 10 -k RTR
r -t 0.102698458 -s 1 -d 0 -p AODVUU -e 48 -c 2 -a 0 -i 2 -k RTR
r -t 0.102698458 -s 4 -d 0 -p AODVUU -e 48 -c 2 -a 0 -i 2 -k RTR
+ -t 0.102698458 -s 1 -d 2 -p AODVUU -e 36 -c 2 -a 0 -i 11 -k RTR 
- -t 0.102698458 -s 1 -d 2 -p AODVUU -e 36 -c 2 -a 0 -i 11 -k RTR
h -t 0.102698458 -s 1 -d 2 -p AODVUU -e 36 -c 2 -a 0 -i 11 -k RTR
d -t 0.102698458 -s 1 -d 2 -p AODVUU -e 36 -c 2 -a 0 -i 9 -k IFQ
+ -t 0.102698458 -s 4 -d 2 -p AODVUU -e 36 -c 2 -a 0 -i 12 -k RTR 
- -t 0.102698458 -s 4 -d 2 -p AODVUU -e 36 -c 2 -a 0 -i 12 -k RTR
h -t 0.102698458 -s 4 -d 2 -p AODVUU -e 36 -c 2 -a 0 -i 12 -k RTR
d -t 0.102698458 -s 4 -d 2 -p AODVUU -e 36 -c 2 -a 0 -i 10 -k IFQ
r -t 0.103482458 -s 1 -d 0 -p AODVUU -e 48 -c 2 -a 0 -i 2 -k RTR
r -t 0.103482458 -s 4 -d 0 -p AODVUU -e 48 -c 2 -a 0 -i 2 -k RTR
+ -t 0.103482458 -s 1 -d 2 -p AODVUU -e 36 -c 2 -a 0 -i 13 -k RTR 
- -t 0.103482458 -s 1 -d 2 -p AODVUU -e 36 -c 2 -a 0 -i 13 -k RTR
h -t 0.103482458 -s 1 -d 2 -p AODVUU -e 36 -c 2 -a 0 -i 13 -k RTR
d -t 0.103482458 -s 1 -d 2 -p AODVUU -e 36 -c 2 -a 0 -i 11 -k IFQ
+ -t 0.103482458 -s 4 -d 2 -p AODVUU -e 36 -c 2 -a 0 -i 14 -k RTR 
- -t 0.103482458 -s 4 -d 2 -p AODVUU -e 36 -c 2 -a 0 -i 14 -k RTR
h -t 0.103482458 -s 4 -d 2 -p AODVUU -e 36 -c 2 -a 0 -i 14 -k RTR
d -t 0.103482458 -s 4 -d 2 -p AODVUU -e 36 -c 2 -a 0 -i 12 -k IFQ
+ -t 0.108823468 -s 4 -d 0 -p AODVUU -e 48 -c 2 -a 0 -i 4 -k RTR 
- -t 0.108823468 -s 4 -d 0 -p AODVUU -e 48 -c 2 -a 0 -i 4 -k RTR
h -t 0.108823468 -s 4 -d 0 -p AODVUU -e 48 -c 2 -a 0 -i 4 -k RTR
+ -t 0.108823468 -s 4 -d 0 -p AODVUU -e 48 -c 2 -a 0 -i 4 -k RTR 
- -t 0.108823468 -s 4 -d 0 -p AODVUU -e 48 -c 2 -a 0 -i 4 -k RTR
h -t 0.108823468 -s 4 -d 0 -p AODVUU -e 48 -c 2 -a 0 -i 4 -k RTR
+ -t 0.108823468 -s 4 -d 0 -p AODVUU -e 48 -c 2 -a 0 -i 4 -k RTR 
- -t 0.108823468 -s 4 -d 0 -p AODVUU -e 48 -c 2 -a 0 -i 4 -k RTR
h -t 0.108823468 -s 4 -d 0 -p AODVUU -e 48 -c 2 -a 0 -i 4 -k RTR
r -t 0.109811801 -s 5 -d 0 -p AODVUU -e 48 -c 2 -a 0 -i 4 -k RTR
+ -t 0.109811801 -s 5 -d 4 -p AODVUU -e 36 -c 2 -a 0 -i 15 -k RTR 
- -t 0.109811801 -s 5 -d 4 -p AODVUU -e 36 -c 2 -a 0 -i 15 -k RTR
h -t 0.109811801 -s 5 -d 4 -p AODVUU -e 36 -c 2 -a 0 -i 15 -k RTR
r -t 0.109812134 -s 2 -d 0 -p AODVUU -e 48 -c 2 -a 0 -i 4 -k RTR
+ -t 0.109812134 -s 2 -d 4 -p AODVUU -e 36 -c 2 -a 0 -i 16 -k RTR 
- -t 0.109812134 -s 2 -d 4 -p AODVUU -e 36 -c 2 -a 0 -i 16 -k RTR
h -t 0.109812134 -s 2 -d 4 -p AODVUU -e 36 -c 2 -a 0 -i 16 -k RTR
r -t 0.110071801 -s 5 -d 0 -p AODVUU -e 48 -c 2 -a 0 -i 4 -k RTR
+ -t 0.110071801 -s 5 -d 4 -p AODVUU -e 36 -c 2 -a 0 -i 17 -k RTR 
- -t 0.110071801 -s 5 -d 4 -p AODVUU -e 36 -c 2 -a 0 -i 17 -k RTR
h -t 0.110071801 -s 5 -d 4 -p AODVUU -e 36 -c 2 -a 0 -i 17 -k RTR
r -t 0.110072134 -s 2 -d 0 -p AODVUU -e 48 -c 2 -a 0 -i 4 -k RTR
+ -t 0.110072134 -s 2 -d 4 -p AODVUU -e 36 -c 2 -a 0 -i 18 -k RTR 
- -t 0.110072134 -s 2 -d 4 -p AODVUU -e 36 -c 2 -a 0 -i 18 -k RTR
h -t 0.110072134 -s 2 -d 4 -p AODVUU -e 36 -c 2 -a 0 -i 18 -k RTR
+ -t 0.111117614 -s 1 -d 0 -p AODVUU -e 48 -c 2 -a 0 -i 1 -k RTR 
- -t 0.111117614 -s 1 -d 0 -p AODVUU -e 48 -c 2 -a 0 -i 1 -k RTR
h -t 0.111117614 -s 1 -d 0 -p AODVUU -e 48 -c 2 -a 0 -i 1 -k RTR
+ -t 0.111117614 -s 1 -d 0 -p AODVUU -e 48 -c 2 -a 0 -i 1 -k RTR 
- -t 0.111117614 -s 1 -d 0 -p AODVUU -e 48 -c 2 -a 0 -i 1 -k RTR
h -t 0.111117614 -s 1 -d 0 -p AODVUU -e 48 -c 2 -a 0 -i 1 -k RTR
+ -t 0.111117614 -s 1 -d 0 -p AODVUU -e 48 -c 2 -a 0 -i 1 -k RTR 
- -t 0.111117614 -s 1 -d 0 -p AODVUU -e 48 -c 2 -a 0 -i 1 -k RTR
h -t 0.111117614 -s 1 -d 0 -p AODVUU -e 48 -c 2 -a 0 -i 1 -k RTR
r -t 0.112165948 -s 0 -d 0 -p AODVUU -e 48 -c 2 -a 0 -i 1 -k RTR
+ -t 0.112165948 -s 0 -d 1 -p AODVUU -e 36 -c 2 -a 0 -i 19 -k RTR 
- -t 0.112165948 -s 0 -d 1 -p AODVUU -e 36 -c 2 -a 0 -i 19 -k RTR
h -t 0.112165948 -s 0 -d 1 -p AODVUU -e 36 -c 2 -a 0 -i 19 -k RTR
r -t 0.112166281 -s 2 -d 0 -p AODVUU -e 48 -c 2 -a 0 -i 1 -k RTR
+ -t 0.112166281 -s 2 -d 1 -p AODVUU -e 36 -c 2 -a 0 -i 20 -k RTR 
- -t 0.112166281 -s 2 -d 1 -p AODVUU -e 36 -c 2 -a 0 -i 20 -k RTR
h -t 0.112166281 -s 2 -d 1 -p AODVUU -e 36 -c 2 -a 0 -i 20 -k RTR
r -t 0.112585948 -s 0 -d 0 -p AODVUU -e 48 -c 2 -a 0 -i 1 -k RTR
+ -t 0.112585948 -s 0 -d 1 -p AODVUU -e 36 -c 2 -a 0 -i 21 -k RTR 
- -t 0.112585948 -s 0 -d 1 -p AODVUU -e 36 -c 2 -a 0 -i 21 -k RTR
h -t 0.112585948 -s 0 -d 1 -p AODVUU -e 36 -c 2 -a 0 -i 21 -k RTR
r -t 0.112586281 -s 2 -d 0 -p AODVUU -e 48 -c 2 -a 0 -i 1 -k RTR
+ -t 0.112586281 -s 2 -d 1 -p AODVUU -e 36 -c 2 -a 0 -i 22 -k RTR 
- -t 0.112586281 -s 2 -d 1 -p AODVUU -e 36 -c 2 -a 0 -i 22 -k RTR
h -t 0.112586281 -s 2 -d 1 -p AODVUU -e 36 -c 2 -a 0 -i 22 -k RTR
r -t 0.115493384 -s 0 -d 0 -p AODVUU -e 48 -c 2 -a 0 -i 1 -k RTR
+ -t 0.115493384 -s 0 -d 1 -p AODVUU -e 36 -c 2 -a 0 -i 23 -k RTR 
- -t 0.115493384 -s 0 -d 1 -p AODVUU -e 36 -c 2 -a 0 -i 23 -k RTR
h -t 0.115493384 -s 0 -d 1 -p AODVUU -e 36 -c 2 -a 0 -i 23 -k RTR
r -t 0.115493717 -s 2 -d 0 -p AODVUU -e 48 -c 2 -a 0 -i 1 -k RTR
+ -t 0.115493717 -s 2 -d 1 -p AODVUU -e 36 -c 2 -a 0 -i 24 -k RTR 
- -t 0.115493717 -s 2 -d 1 -p AODVUU -e 36 -c 2 -a 0 -i 24 -k RTR
h -t 0.115493717 -s 2 -d 1 -p AODVUU -e 36 -c 2 -a 0 -i 24 -k RTR
+ -t 0.115983109 -s 5 -d 0 -p AODVUU -e 48 -c 2 -a 0 -i 5 -k RTR 
- -t 0.115983109 -s 5 -d 0 -p AODVUU -e 48 -c 2 -a 0 -i 5 -k RTR
h -t 0.115983109 -s 5 -d 0 -p AODVUU -e 48 -c 2 -a 0 -i 5 -k RTR
+ -t 0.115983109 -s 5 -d 0 -p AODVUU -e 48 -c 2 -a 0 -i 5 -k RTR 
- -t 0.115983109 -s 5 -d 0 -p AODVUU -e 48 -c 2 -a 0 -i 5 -k RTR
h -t 0.115983109 -s 5 -d 0 -p AODVUU -e 48 -c 2 -a 0 -i 5 -k RTR
+ -t 0.115983109 -s 5 -d 0 -p AODVUU -e 48 -c 2 -a 0 -i 5 -k RTR 
- -t 0.115983109 -s 5 -d 0 -p AODVUU -e 48 -c 2 -a 0 -i 5 -k RTR
h -t 0.115983109 -s 5 -d 0 -p AODVUU -e 48 -c 2 -a 0 -i 5 -k RTR
r -t 0.117111442 -s 4 -d 0 -p AODVUU -e 48 -c 2 -a 0 -i 5 -k RTR
+ -t 0.117111442 -s 4 -d 5 -p AODVUU -e 36 -c 2 -a 0 -i 25 -k RTR 
- -t 0.117111442 -s 4 -d 5 -p AODVUU -e 36 -c 2 -a 0 -i 25 -k RTR
h -t 0.117111442 -s 4 -d 5 -p AODVUU -e 36 -c 2 -a 0 -i 25 -k RTR
r -t 0.117211442 -s 4 -d 0 -p AODVUU -e 48 -c 2 -a 0 -i 5 -k RTR
+ -t 0.117211442 -s 4 -d 5 -p AODVUU -e 36 -c 2 -a 0 -i 26 -k RTR 
- -t 0.117211442 -s 4 -d 5 -p AODVUU -e 36 -c 2 -a 0 -i 26 -k RTR
h -t 0.117211442 -s 4 -d 5 -p AODVUU -e 36 -c 2 -a 0 -i 26 -k RTR
d -t 0.117211442 -s 4 -d 5 -p AODVUU -e 36 -c 2 -a 0 -i 25 -k IFQ
r -t 0.140319273 -s 4 -d 0 -p AODVUU -e 48 -c 2 -a 0 -i 5 -k RTR
+ -t 0.140319273 -s 4 -d 5 -p AODVUU -e 36 -c 2 -a 0 -i 27 -k RTR 
- -t 0.140319273 -s 4 -d 5 -p AODVUU -e 36 -c 2 -a 0 -i 27 -k RTR
h -t 0.140319273 -s 4 -d 5 -p AODVUU -e 36 -c 2 -a 0 -i 27 -k RTR
d -t 0.140319273 -s 4 -d 5 -p AODVUU -e 36 -c 2 -a 0 -i 26 -k IFQ
n -t 1.000000 -s 2 -x 300.000000 -y 300.000000 -U 0.000000 -V 100.000000 -T 3.000000
+ -t 1.000000000 -s 0 -d -1 -p cbr -e 1000 -c 2 -a 0 -i 28 -k AGT 
- -t 1.000000000 -s 0 -d -1 -p cbr -e 1000 -c 2 -a 0 -i 28 -k AGT
h -t 1.000000000 -s 0 -d -1 -p cbr -e 1000 -c 2 -a 0 -i 28 -k AGT
+ -t 1.001668598 -s 0 -d 0 -p AODVUU -e 52 -c 2 -a 0 -i 29 -k RTR 
- -t 1.001668598 -s 0 -d 0 -p AODVUU -e 52 -c 2 -a 0 -i 29 -k RTR
h -t 1.001668598 -s 0 -d 0 -p AODVUU -e 52 -c 2 -a 0 -i 29 -k RTR
+ -t 1.001668598 -s 0 -d 0 -p AODVUU -e 52 -c 2 -a 0 -i 29 -k RTR 
- -t 1.001668598 -s 0 -d 0 -p AODVUU -e 52 -c 2 -a 0 -i 29 -k RTR
h -t 1.001668598 -s 0 -d 0 -p AODVUU -e 52 -c 2 -a 0 -i 29 -k RTR
+ -t 1.001668598 -s 0 -d 0 -p AODVUU -e 52 -c 2 -a 0 -i 29 -k RTR 
- -t 1.001668598 -s 0 -d 0 -p AODVUU -e 52 -c 2 -a 0 -i 29 -k RTR
h -t 1.001668598 -s 0 -d 0 -p AODVUU -e 52 -c 2 -a 0 -i 29 -k RTR
r -t 1.002808931 -s 1 -d 0 -p AODVUU -e 52 -c 2 -a 0 -i 29 -k RTR
r -t 1.002828931 -s 1 -d 0 -p AODVUU -e 52 -c 2 -a 0 -i 29 -k RTR
r -t 1.003088931 -s 1 -d 0 -p AODVUU -e 52 -c 2 -a 0 -i 29 -k RTR
+ -t 1.100067005 -s 0 -d 0 -p AODVUU -e 48 -c 2 -a 0 -i 30 -k RTR 
- -t 1.100067005 -s 0 -d 0 -p AODVUU -e 48 -c 2 -a 0 -i 30 -k RTR
h -t 1.100067005 -s 0 -d 0 -p AODVUU -e 48 -c 2 -a 0 -i 30 -k RTR
+ -t 1.100067005 -s 0 -d 0 -p AODVUU -e 48 -c 2 -a 0 -i 30 -k RTR 
- -t 1.100067005 -s 0 -d 0 -p AODVUU -e 48 -c 2 -a 0 -i 30 -k RTR
h -t 1.100067005 -s 0 -d 0 -p AODVUU -e 48 -c 2 -a 0 -i 30 -k RTR
+ -t 1.100067005 -s 0 -d 0 -p AODVUU -e 48 -c 2 -a 0 -i 30 -k RTR 
- -t 1.100067005 -s 0 -d 0 -p AODVUU -e 48 -c 2 -a 0 -i 30 -k RTR
h -t 1.100067005 -s 0 -d 0 -p AODVUU -e 48 -c 2 -a 0 -i 30 -k RTR
r -t 1.101175339 -s 1 -d 0 -p AODVUU -e 48 -c 2 -a 0 -i 30 -k RTR
+ -t 1.101175339 -s 1 -d 0 -p AODVUU -e 36 -c 2 -a 0 -i 36 -k RTR 
- -t 1.101175339 -s 1 -d 0 -p AODVUU -e 36 -c 2 -a 0 -i 36 -k RTR
h -t 1.101175339 -s 1 -d 0 -p AODVUU -e 36 -c 2 -a 0 -i 36 -k RTR
r -t 1.101335339 -s 1 -d 0 -p AODVUU -e 48 -c 2 -a 0 -i 30 -k RTR
+ -t 1.101335339 -s 1 -d 0 -p AODVUU -e 36 -c 2 -a 0 -i 37 -k RTR 
- -t 1.101335339 -s 1 -d 0 -p AODVUU -e 36 -c 2 -a 0 -i 37 -k RTR
h -t 1.101335339 -s 1 -d 0 -p AODVUU -e 36 -c 2 -a 0 -i 37 -k RTR
r -t 1.101515339 -s 1 -d 0 -p AODVUU -e 48 -c 2 -a 0 -i 30 -k RTR
+ -t 1.101515339 -s 1 -d 0 -p AODVUU -e 36 -c 2 -a 0 -i 38 -k RTR 
- -t 1.101515339 -s 1 -d 0 -p AODVUU -e 36 -c 2 -a 0 -i 38 -k RTR
h -t 1.101515339 -s 1 -d 0 -p AODVUU -e 36 -c 2 -a 0 -i 38 -k RTR
+ -t 1.103425371 -s 2 -d 0 -p AODVUU -e 48 -c 2 -a 0 -i 35 -k RTR 
- -t 1.103425371 -s 2 -d 0 -p AODVUU -e 48 -c 2 -a 0 -i 35 -k RTR
h -t 1.103425371 -s 2 -d 0 -p AODVUU -e 48 -c 2 -a 0 -i 35 -k RTR
+ -t 1.103425371 -s 2 -d 0 -p AODVUU -e 48 -c 2 -a 0 -i 35 -k RTR 
- -t 1.103425371 -s 2 -d 0 -p AODVUU -e 48 -c 2 -a 0 -i 35 -k RTR
h -t 1.103425371 -s 2 -d 0 -p AODVUU -e 48 -c 2 -a 0 -i 35 -k RTR
+ -t 1.103425371 -s 2 -d 0 -p AODVUU -e 48 -c 2 -a 0 -i 35 -k RTR 
- -t 1.103425371 -s 2 -d 0 -p AODVUU -e 48 -c 2 -a 0 -i 35 -k RTR
h -t 1.103425371 -s 2 -d 0 -p AODVUU -e 48 -c 2 -a 0 -i 35 -k RTR
r -t 1.104794038 -s 1 -d 0 -p AODVUU -e 48 -c 2 -a 0 -i 35 -k RTR
r -t 1.104794038 -s 4 -d 0 -p AODVUU -e 48 -c 2 -a 0 -i 35 -k RTR
+ -t 1.104794038 -s 1 -d 2 -p AODVUU -e 36 -c 2 -a 0 -i 39 -k RTR 
- -t 1.104794038 -s 1 -d 2 -p AODVUU -e 36 -c 2 -a 0 -i 39 -k RTR
h -t 1.104794038 -s 1 -d 2 -p AODVUU -e 36 -c 2 -a 0 -i 39 -k RTR
+ -t 1.104794038 -s 4 -d 2 -p AODVUU -e 36 -c 2 -a 0 -i 40 -k RTR 
- -t 1.104794038 -s 4 -d 2 -p AODVUU -e 36 -c 2 -a 0 -i 40 -k RTR
h -t 1.104794038 -s 4 -d 2 -p AODVUU -e 36 -c 2 -a 0 -i 40 -k RTR
r -t 1.104974038 -s 1 -d 0 -p AODVUU -e 48 -c 2 -a 0 -i 35 -k RTR
r -t 1.104974038 -s 4 -d 0 -p AODVUU -e 48 -c 2 -a 0 -i 35 -k RTR
+ -t 1.104974038 -s 1 -d 2 -p AODVUU -e 36 -c 2 -a 0 -i 41 -k RTR 
- -t 1.104974038 -s 1 -d 2 -p AODVUU -e 36 -c 2 -a 0 -i 41 -k RTR
h -t 1.104974038 -s 1 -d 2 -p AODVUU -e 36 -c 2 -a 0 -i 41 -k RTR
+ -t 1.104974038 -s 4 -d 2 -p AODVUU -e 36 -c 2 -a 0 -i 42 -k RTR 
- -t 1.104974038 -s 4 -d 2 -p AODVUU -e 36 -c 2 -a 0 -i 42 -k RTR
h -t 1.104974038 -s 4 -d 2 -p AODVUU -e 36 -c 2 -a 0 -i 42 -k RTR
+ -t 1.106434696 -s 3 -d 0 -p AODVUU -e 48 -c 2 -a 0 -i 31 -k RTR 
- -t 1.106434696 -s 3 -d 0 -p AODVUU -e 48 -c 2 -a 0 -i 31 -k RTR
h -t 1.106434696 -s 3 -d 0 -p AODVUU -e 48 -c 2 -a 0 -i 31 -k RTR
+ -t 1.106434696 -s 3 -d 0 -p AODVUU -e 48 -c 2 -a 0 -i 31 -k RTR 
- -t 1.106434696 -s 3 -d 0 -p AODVUU -e 48 -c 2 -a 0 -i 31 -k RTR
h -t 1.106434696 -s 3 -d 0 -p AODVUU -e 48 -c 2 -a 0 -i 31 -k RTR
+ -t 1.106434696 -s 3 -d 0 -p AODVUU -e 48 -c 2 -a 0 -i 31 -k RTR 
- -t 1.106434696 -s 3 -d 0 -p AODVUU -e 48 -c 2 -a 0 -i 31 -k RTR
h -t 1.106434696 -s 3 -d 0 -p AODVUU -e 48 -c 2 -a 0 -i 31 -k RTR
r -t 1.112677943 -s 1 -d 0 -p AODVUU -e 48 -c 2 -a 0 -i 35 -k RTR
r -t 1.112677943 -s 4 -d 0 -p AODVUU -e 48 -c 2 -a 0 -i 35 -k RTR
+ -t 1.112677943 -s 1 -d 2 -p AODVUU -e 36 -c 2 -a 0 -i 43 -k RTR 
- -t 1.112677943 -s 1 -d 2 -p AODVUU -e 36 -c 2 -a 0 -i 43 -k RTR
h -t 1.112677943 -s 1 -d 2 -p AODVUU -e 36 -c 2 -a 0 -i 43 -k RTR
+ -t 1.112677943 -s 4 -d 2 -p AODVUU -e 36 -c 2 -a 0 -i 44 -k RTR 
- -t 1.112677943 -s 4 -d 2 -p AODVUU -e 36 -c 2 -a 0 -i 44 -k RTR
h -t 1.112677943 -s 4 -d 2 -p AODVUU -e 36 -c 2 -a 0 -i 44 -k RTR
+ -t 1.116117568 -s 1 -d 0 -p AODVUU -e 48 -c 2 -a 0 -i 34 -k RTR 
- -t 1.116117568 -s 1 -d 0 -p AODVUU -e 48 -c 2 -a 0 -i 34 -k RTR
h -t 1.116117568 -s 1 -d 0 -p AODVUU -e 48 -c 2 -a 0 -i 34 -k RTR
+ -t 1.116117568 -s 1 -d 0 -p AODVUU -e 48 -c 2 -a 0 -i 34 -k RTR 
- -t 1.116117568 -s 1 -d 0 -p AODVUU -e 48 -c 2 -a 0 -i 34 -k RTR
h -t 1.116117568 -s 1 -d 0 -p AODVUU -e 48 -c 2 -a 0 -i 34 -k RTR
+ -t 1.116117568 -s 1 -d 0 -p AODVUU -e 48 -c 2 -a 0 -i 34 -k RTR 
- -t 1.116117568 -s 1 -d 0 -p AODVUU -e 48 -c 2 -a 0 -i 34 -k RTR
h -t 1.116117568 -s 1 -d 0 -p AODVUU -e 48 -c 2 -a 0 -i 34 -k RTR
r -t 1.117065901 -s 0 -d 0 -p AODVUU -e 48 -c 2 -a 0 -i 34 -k RTR
+ -t 1.117065901 -s 0 -d 1 -p AODVUU -e 36 -c 2 -a 0 -i 45 -k RTR 
- -t 1.117065901 -s 0 -d 1 -p AODVUU -e 36 -c 2 -a 0 -i 45 -k RTR
h -t 1.117065901 -s 0 -d 1 -p AODVUU -e 36 -c 2 -a 0 -i 45 -k RTR
r -t 1.117066236 -s 2 -d 0 -p AODVUU -e 48 -c 2 -a 0 -i 34 -k RTR
+ -t 1.117066236 -s 2 -d 1 -p AODVUU -e 36 -c 2 -a 0 -i 46 -k RTR 
- -t 1.117066236 -s 2 -d 1 -p AODVUU -e 36 -c 2 -a 0 -i 46 -k RTR
h -t 1.117066236 -s 2 -d 1 -p AODVUU -e 36 -c 2 -a 0 -i 46 -k RTR
+ -t 1.117600681 -s 4 -d 0 -p AODVUU -e 48 -c 2 -a 0 -i 33 -k RTR 
- -t 1.117600681 -s 4 -d 0 -p AODVUU -e 48 -c 2 -a 0 -i 33 -k RTR
h -t 1.117600681 -s 4 -d 0 -p AODVUU -e 48 -c 2 -a 0 -i 33 -k RTR
+ -t 1.117600681 -s 4 -d 0 -p AODVUU -e 48 -c 2 -a 0 -i 33 -k RTR 
- -t 1.117600681 -s 4 -d 0 -p AODVUU -e 48 -c 2 -a 0 -i 33 -k RTR
h -t 1.117600681 -s 4 -d 0 -p AODVUU -e 48 -c 2 -a 0 -i 33 -k RTR
+ -t 1.117600681 -s 4 -d 0 -p AODVUU -e 48 -c 2 -a 0 -i 33 -k RTR 
- -t 1.117600681 -s 4 -d 0 -p AODVUU -e 48 -c 2 -a 0 -i 33 -k RTR
h -t 1.117600681 -s 4 -d 0 -p AODVUU -e 48 -c 2 -a 0 -i 33 -k RTR
r -t 1.117605901 -s 0 -d 0 -p AODVUU -e 48 -c 2 -a 0 -i 34 -k RTR
+ -t 1.117605901 -s 0 -d 1 -p AODVUU -e 36 -c 2 -a 0 -i 47 -k RTR 
- -t 1.117605901 -s 0 -d 1 -p AODVUU -e 36 -c 2 -a 0 -i 47 -k RTR
h -t 1.117605901 -s 0 -d 1 -p AODVUU -e 36 -c 2 -a 0 -i 47 -k RTR
r -t 1.117606236 -s 2 -d 0 -p AODVUU -e 48 -c 2 -a 0 -i 34 -k RTR
+ -t 1.117606236 -s 2 -d 1 -p AODVUU -e 36 -c 2 -a 0 -i 48 -k RTR 
- -t 1.117606236 -s 2 -d 1 -p AODVUU -e 36 -c 2 -a 0 -i 48 -k RTR
h -t 1.117606236 -s 2 -d 1 -p AODVUU -e 36 -c 2 -a 0 -i 48 -k RTR
+ -t 1.117625682 -s 5 -d 0 -p AODVUU -e 48 -c 2 -a 0 -i 32 -k RTR 
- -t 1.117625682 -s 5 -d 0 -p AODVUU -e 48 -c 2 -a 0 -i 32 -k RTR
h -t 1.117625682 -s 5 -d 0 -p AODVUU -e 48 -c 2 -a 0 -i 32 -k RTR
+ -t 1.117625682 -s 5 -d 0 -p AODVUU -e 48 -c 2 -a 0 -i 32 -k RTR 
- -t 1.117625682 -s 5 -d 0 -p AODVUU -e 48 -c 2 -a 0 -i 32 -k RTR
h -t 1.117625682 -s 5 -d 0 -p AODVUU -e 48 -c 2 -a 0 -i 32 -k RTR
+ -t 1.117625682 -s 5 -d 0 -p AODVUU -e 48 -c 2 -a 0 -i 32 -k RTR 
- -t 1.117625682 -s 5 -d 0 -p AODVUU -e 48 -c 2 -a 0 -i 32 -k RTR
h -t 1.117625682 -s 5 -d 0 -p AODVUU -e 48 -c 2 -a 0 -i 32 -k RTR
r -t 1.118390596 -s 0 -d 0 -p AODVUU -e 48 -c 2 -a 0 -i 34 -k RTR
+ -t 1.118390596 -s 0 -d 1 -p AODVUU -e 36 -c 2 -a 0 -i 49 -k RTR 
- -t 1.118390596 -s 0 -d 1 -p AODVUU -e 36 -c 2 -a 0 -i 49 -k RTR
h -t 1.118390596 -s 0 -d 1 -p AODVUU -e 36 -c 2 -a 0 -i 49 -k RTR
r -t 1.118390931 -s 2 -d 0 -p AODVUU -e 48 -c 2 -a 0 -i 34 -k RTR
+ -t 1.118390931 -s 2 -d 1 -p AODVUU -e 36 -c 2 -a 0 -i 50 -k RTR 
- -t 1.118390931 -s 2 -d 1 -p AODVUU -e 36 -c 2 -a 0 -i 50 -k RTR
h -t 1.118390931 -s 2 -d 1 -p AODVUU -e 36 -c 2 -a 0 -i 50 -k RTR
r -t 1.118754015 -s 4 -d 0 -p AODVUU -e 48 -c 2 -a 0 -i 32 -k RTR
+ -t 1.118754015 -s 4 -d 5 -p AODVUU -e 36 -c 2 -a 0 -i 51 -k RTR 
- -t 1.118754015 -s 4 -d 5 -p AODVUU -e 36 -c 2 -a 0 -i 51 -k RTR
h -t 1.118754015 -s 4 -d 5 -p AODVUU -e 36 -c 2 -a 0 -i 51 -k RTR
r -t 1.118869568 -s 4 -d 0 -p AODVUU -e 48 -c 2 -a 0 -i 32 -k RTR
+ -t 1.118869568 -s 4 -d 5 -p AODVUU -e 36 -c 2 -a 0 -i 52 -k RTR 
- -t 1.118869568 -s 4 -d 5 -p AODVUU -e 36 -c 2 -a 0 -i 52 -k RTR
h -t 1.118869568 -s 4 -d 5 -p AODVUU -e 36 -c 2 -a 0 -i 52 -k RTR
r -t 1.119692349 -s 5 -d 0 -p AODVUU -e 48 -c 2 -a 0 -i 33 -k RTR
+ -t 1.119692349 -s 5 -d 4 -p AODVUU -e 36 -c 2 -a 0 -i 53 -k RTR 
- -t 1.119692349 -s 5 -d 4 -p AODVUU -e 36 -c 2 -a 0 -i 53 -k RTR
h -t 1.119692349 -s 5 -d 4 -p AODVUU -e 36 -c 2 -a 0 -i 53 -k RTR
r -t 1.119692683 -s 2 -d 0 -p AODVUU -e 48 -c 2 -a 0 -i 33 -k RTR
+ -t 1.119692683 -s 2 -d 4 -p AODVUU -e 36 -c 2 -a 0 -i 54 -k RTR 
- -t 1.119692683 -s 2 -d 4 -p AODVUU -e 36 -c 2 -a 0 -i 54 -k RTR
h -t 1.119692683 -s 2 -d 4 -p AODVUU -e 36 -c 2 -a 0 -i 54 -k RTR
r -t 1.120287901 -s 5 -d 0 -p AODVUU -e 48 -c 2 -a 0 -i 33 -k RTR
+ -t 1.120287901 -s 5 -d 4 -p AODVUU -e 36 -c 2 -a 0 -i 55 -k RTR 
- -t 1.120287901 -s 5 -d 4 -p AODVUU -e 36 -c 2 -a 0 -i 55 -k RTR
h -t 1.120287901 -s 5 -d 4 -p AODVUU -e 36 -c 2 -a 0 -i 55 -k RTR
r -t 1.120288236 -s 2 -d 0 -p AODVUU -e 48 -c 2 -a 0 -i 33 -k RTR
+ -t 1.120288236 -s 2 -d 4 -p AODVUU -e 36 -c 2 -a 0 -i 56 -k RTR 
- -t 1.120288236 -s 2 -d 4 -p AODVUU -e 36 -c 2 -a 0 -i 56 -k RTR
h -t 1.120288236 -s 2 -d 4 -p AODVUU -e 36 -c 2 -a 0 -i 56 -k RTR
r -t 1.122345347 -s 5 -d 0 -p AODVUU -e 48 -c 2 -a 0 -i 33 -k RTR
+ -t 1.122345347 -s 5 -d 4 -p AODVUU -e 36 -c 2 -a 0 -i 57 -k RTR 
- -t 1.122345347 -s 5 -d 4 -p AODVUU -e 36 -c 2 -a 0 -i 57 -k RTR
h -t 1.122345347 -s 5 -d 4 -p AODVUU -e 36 -c 2 -a 0 -i 57 -k RTR
r -t 1.122345681 -s 2 -d 0 -p AODVUU -e 48 -c 2 -a 0 -i 33 -k RTR
+ -t 1.122345681 -s 2 -d 4 -p AODVUU -e 36 -c 2 -a 0 -i 58 -k RTR 
- -t 1.122345681 -s 2 -d 4 -p AODVUU -e 36 -c 2 -a 0 -i 58 -k RTR
h -t 1.122345681 -s 2 -d 4 -p AODVUU -e 36 -c 2 -a 0 -i 58 -k RTR
r -t 1.123263680 -s 4 -d 0 -p AODVUU -e 48 -c 2 -a 0 -i 32 -k RTR
+ -t 1.123263680 -s 4 -d 5 -p AODVUU -e 36 -c 2 -a 0 -i 59 -k RTR 
- -t 1.123263680 -s 4 -d 5 -p AODVUU -e 36 -c 2 -a 0 -i 59 -k RTR
h -t 1.123263680 -s 4 -d 5 -p AODVUU -e 36 -c 2 -a 0 -i 59 -k RTR
+ -t 1.140000000 -s 0 -d -1 -p cbr -e 1000 -c 2 -a 0 -i 60 -k AGT 
- -t 1.140000000 -s 0 -d -1 -p cbr -e 1000 -c 2 -a 0 -i 60 -k AGT
h -t 1.140000000 -s 0 -d -1 -p cbr -e 1000 -c 2 -a 0 -i 60 -k AGT
+ -t 1.241078322 -s 0 -d 0 -p AODVUU -e 52 -c 2 -a 0 -i 61 -k RTR 
- -t 1.241078322 -s 0 -d 0 -p AODVUU -e 52 -c 2 -a 0 -i 61 -k RTR
h -t 1.241078322 -s 0 -d 0 -p AODVUU -e 52 -c 2 -a 0 -i 61 -k RTR
+ -t 1.241078322 -s 0 -d 0 -p AODVUU -e 52 -c 2 -a 0 -i 61 -k RTR 
- -t 1.241078322 -s 0 -d 0 -p AODVUU -e 52 -c 2 -a 0 -i 61 -k RTR
h -t 1.241078322 -s 0 -d 0 -p AODVUU -e 52 -c 2 -a 0 -i 61 -k RTR
+ -t 1.241078322 -s 0 -d 0 -p AODVUU -e 52 -c 2 -a 0 -i 61 -k RTR 
- -t 1.241078322 -s 0 -d 0 -p AODVUU -e 52 -c 2 -a 0 -i 61 -k RTR
h -t 1.241078322 -s 0 -d 0 -p AODVUU -e 52 -c 2 -a 0 -i 61 -k RTR
r -t 1.242118655 -s 1 -d 0 -p AODVUU -e 52 -c 2 -a 0 -i 61 -k RTR
r -t 1.242358655 -s 1 -d 0 -p AODVUU -e 52 -c 2 -a 0 -i 61 -k RTR
r -t 1.242438655 -s 1 -d 0 -p AODVUU -e 52 -c 2 -a 0 -i 61 -k RTR
+ -t 1.258562873 -s 1 -d 0 -p AODVUU -e 52 -c 2 -a 0 -i 62 -k RTR 
- -t 1.258562873 -s 1 -d 0 -p AODVUU -e 52 -c 2 -a 0 -i 62 -k RTR
h -t 1.258562873 -s 1 -d 0 -p AODVUU -e 52 -c 2 -a 0 -i 62 -k RTR
+ -t 1.258562873 -s 1 -d 0 -p AODVUU -e 52 -c 2 -a 0 -i 62 -k RTR 
- -t 1.258562873 -s 1 -d 0 -p AODVUU -e 52 -c 2 -a 0 -i 62 -k RTR
h -t 1.258562873 -s 1 -d 0 -p AODVUU -e 52 -c 2 -a 0 -i 62 -k RTR
+ -t 1.258562873 -s 1 -d 0 -p AODVUU -e 52 -c 2 -a 0 -i 62 -k RTR 
- -t 1.258562873 -s 1 -d 0 -p AODVUU -e 52 -c 2 -a 0 -i 62 -k RTR
h -t 1.258562873 -s 1 -d 0 -p AODVUU -e 52 -c 2 -a 0 -i 62 -k RTR
r -t 1.259543207 -s 0 -d 0 -p AODVUU -e 52 -c 2 -a 0 -i 62 -k RTR
r -t 1.259543546 -s 2 -d 0 -p AODVUU -e 52 -c 2 -a 0 -i 62 -k RTR
r -t 1.259623207 -s 0 -d 0 -p AODVUU -e 52 -c 2 -a 0 -i 62 -k RTR
r -t 1.259623546 -s 2 -d 0 -p AODVUU -e 52 -c 2 -a 0 -i 62 -k RTR
r -t 1.260103207 -s 0 -d 0 -p AODVUU -e 52 -c 2 -a 0 -i 62 -k RTR
r -t 1.260103546 -s 2 -d 0 -p AODVUU -e 52 -c 2 -a 0 -i 62 -k RTR
+ -t 1.271148190 -s 2 -d 0 -p AODVUU -e 52 -c 2 -a 0 -i 63 -k RTR 
- -t 1.271148190 -s 2 -d 0 -p AODVUU -e 52 -c 2 -a 0 -i 63 -k RTR
h -t 1.271148190 -s 2 -d 0 -p AODVUU -e 52 -c 2 -a 0 -i 63 -k RTR
+ -t 1.271148190 -s 2 -d 0 -p AODVUU -e 52 -c 2 -a 0 -i 63 -k RTR 
- -t 1.271148190 -s 2 -d 0 -p AODVUU -e 52 -c 2 -a 0 -i 63 -k RTR
h -t 1.271148190 -s 2 -d 0 -p AODVUU -e 52 -c 2 -a 0 -i 63 -k RTR
+ -t 1.271148190 -s 2 -d 0 -p AODVUU -e 52 -c 2 -a 0 -i 63 -k RTR 
- -t 1.271148190 -s 2 -d 0 -p AODVUU -e 52 -c 2 -a 0 -i 63 -k RTR
h -t 1.271148190 -s 2 -d 0 -p AODVUU -e 52 -c 2 -a 0 -i 63 -k RTR
r -t 1.272228863 -s 1 -d 0 -p AODVUU -e 52 -c 2 -a 0 -i 63 -k RTR
r -t 1.272228863 -s 4 -d 0 -p AODVUU -e 52 -c 2 -a 0 -i 63 -k RTR
+ -t 1.272228863 -s 4 -d 2 -p AODVUU -e 48 -c 2 -a 0 -i 64 -k RTR 
- -t 1.272228863 -s 4 -d 2 -p AODVUU -e 48 -c 2 -a 0 -i 64 -k RTR
h -t 1.272228863 -s 4 -d 2 -p AODVUU -e 48 -c 2 -a 0 -i 64 -k RTR
r -t 1.272348863 -s 1 -d 0 -p AODVUU -e 52 -c 2 -a 0 -i 63 -k RTR
r -t 1.272348863 -s 4 -d 0 -p AODVUU -e 52 -c 2 -a 0 -i 63 -k RTR
r -t 1.272648863 -s 1 -d 0 -p AODVUU -e 52 -c 2 -a 0 -i 63 -k RTR
r -t 1.272648863 -s 4 -d 0 -p AODVUU -e 52 -c 2 -a 0 -i 63 -k RTR
+ -t 1.273420363 -s 2 -d 1 -p AODVUU -e 48 -c 2 -a 0 -i 65 -k RTR 
- -t 1.273420363 -s 2 -d 1 -p AODVUU -e 48 -c 2 -a 0 -i 65 -k RTR
h -t 1.273420363 -s 2 -d 1 -p AODVUU -e 48 -c 2 -a 0 -i 65 -k RTR
+ -t 1.275295863 -s 1 -d 0 -p AODVUU -e 48 -c 2 -a 0 -i 66 -k RTR 
- -t 1.275295863 -s 1 -d 0 -p AODVUU -e 48 -c 2 -a 0 -i 66 -k RTR
h -t 1.275295863 -s 1 -d 0 -p AODVUU -e 48 -c 2 -a 0 -i 66 -k RTR
+ -t 1.276930345 -s 0 -d 1 -p cbr -e 1020 -c 2 -a 0 -i 28 -k RTR 
- -t 1.276930345 -s 0 -d 1 -p cbr -e 1020 -c 2 -a 0 -i 28 -k RTR
h -t 1.276930345 -s 0 -d 1 -p cbr -e 1020 -c 2 -a 0 -i 28 -k RTR
+ -t 1.279984826 -s 1 -d 2 -p cbr -e 1020 -c 2 -a 0 -i 28 -k RTR 
- -t 1.279984826 -s 1 -d 2 -p cbr -e 1020 -c 2 -a 0 -i 28 -k RTR
h -t 1.279984826 -s 1 -d 2 -p cbr -e 1020 -c 2 -a 0 -i 28 -k RTR
+ -t 1.280000000 -s 0 -d -1 -p cbr -e 1000 -c 2 -a 0 -i 67 -k AGT 
- -t 1.280000000 -s 0 -d -1 -p cbr -e 1000 -c 2 -a 0 -i 67 -k AGT
h -t 1.280000000 -s 0 -d -1 -p cbr -e 1000 -c 2 -a 0 -i 67 -k AGT
+ -t 1.280000000 -s 0 -d 1 -p cbr -e 1020 -c 2 -a 0 -i 67 -k RTR 
- -t 1.280000000 -s 0 -d 1 -p cbr -e 1020 -c 2 -a 0 -i 67 -k RTR
h -t 1.280000000 -s 0 -d 1 -p cbr -e 1020 -c 2 -a 0 -i 67 -k RTR
+ -t 1.281930345 -s 0 -d 1 -p cbr -e 1020 -c 2 -a 0 -i 60 -k RTR 
- -t 1.281930345 -s 0 -d 1 -p cbr -e 1020 -c 2 -a 0 -i 60 -k RTR
h -t 1.281930345 -s 0 -d 1 -p cbr -e 1020 -c 2 -a 0 -i 60 -k RTR
+ -t 1.282900327 -s 2 -d 4 -p cbr -e 1020 -c 2 -a 0 -i 28 -k RTR 
- -t 1.282900327 -s 2 -d 4 -p cbr -e 1020 -c 2 -a 0 -i 28 -k RTR
h -t 1.282900327 -s 2 -d 4 -p cbr -e 1020 -c 2 -a 0 -i 28 -k RTR
+ -t 1.285855829 -s 4 -d 5 -p cbr -e 1020 -c 2 -a 0 -i 28 -k RTR 
- -t 1.285855829 -s 4 -d 5 -p cbr -e 1020 -c 2 -a 0 -i 28 -k RTR
h -t 1.285855829 -s 4 -d 5 -p cbr -e 1020 -c 2 -a 0 -i 28 -k RTR
r -t 1.288990310 -s 5 -d 5 -p cbr -e 1000 -c 2 -a 0 -i 28 -k AGT
+ -t 1.292096125 -s 1 -d 2 -p cbr -e 1020 -c 2 -a 0 -i 67 -k RTR 
- -t 1.292096125 -s 1 -d 2 -p cbr -e 1020 -c 2 -a 0 -i 67 -k RTR
h -t 1.292096125 -s 1 -d 2 -p cbr -e 1020 -c 2 -a 0 -i 67 -k RTR
+ -t 1.295071628 -s 2 -d 4 -p cbr -e 1020 -c 2 -a 0 -i 67 -k RTR 
- -t 1.295071628 -s 2 -d 4 -p cbr -e 1020 -c 2 -a 0 -i 67 -k RTR
h -t 1.295071628 -s 2 -d 4 -p cbr -e 1020 -c 2 -a 0 -i 67 -k RTR
+ -t 1.298327131 -s 4 -d 5 -p cbr -e 1020 -c 2 -a 0 -i 67 -k RTR 
- -t 1.298327131 -s 4 -d 5 -p cbr -e 1020 -c 2 -a 0 -i 67 -k RTR
h -t 1.298327131 -s 4 -d 5 -p cbr -e 1020 -c 2 -a 0 -i 67 -k RTR
n -t 1.300000 -s 3 -x 300.000000 -y 0.000000 -U 0.000000 -V 100.000000 -T 3.000000
r -t 1.301121613 -s 5 -d 5 -p cbr -e 1000 -c 2 -a 0 -i 67 -k AGT
+ -t 1.304207428 -s 1 -d 2 -p cbr -e 1020 -c 2 -a 0 -i 60 -k RTR 
- -t 1.304207428 -s 1 -d 2 -p cbr -e 1020 -c 2 -a 0 -i 60 -k RTR
h -t 1.304207428 -s 1 -d 2 -p cbr -e 1020 -c 2 -a 0 -i 60 -k RTR
+ -t 1.307102932 -s 2 -d 4 -p cbr -e 1020 -c 2 -a 0 -i 60 -k RTR 
- -t 1.307102932 -s 2 -d 4 -p cbr -e 1020 -c 2 -a 0 -i 60 -k RTR
h -t 1.307102932 -s 2 -d 4 -p cbr -e 1020 -c 2 -a 0 -i 60 -k RTR
+ -t 1.310278437 -s 4 -d 5 -p cbr -e 1020 -c 2 -a 0 -i 60 -k RTR 
- -t 1.310278437 -s 4 -d 5 -p cbr -e 1020 -c 2 -a 0 -i 60 -k RTR
h -t 1.310278437 -s 4 -d 5 -p cbr -e 1020 -c 2 -a 0 -i 60 -k RTR
r -t 1.313092919 -s 5 -d 5 -p cbr -e 1000 -c 2 -a 0 -i 60 -k AGT
+ -t 1.420000000 -s 0 -d -1 -p cbr -e 1000 -c 2 -a 0 -i 68 -k AGT 
- -t 1.420000000 -s 0 -d -1 -p cbr -e 1000 -c 2 -a 0 -i 68 -k AGT
h -t 1.420000000 -s 0 -d -1 -p cbr -e 1000 -c 2 -a 0 -i 68 -k AGT
+ -t 1.420000000 -s 0 -d 1 -p cbr -e 1020 -c 2 -a 0 -i 68 -k RTR 
- -t 1.420000000 -s 0 -d 1 -p cbr -e 1020 -c 2 -a 0 -i 68 -k RTR
h -t 1.420000000 -s 0 -d 1 -p cbr -e 1020 -c 2 -a 0 -i 68 -k RTR
+ -t 1.423010481 -s 1 -d 2 -p cbr -e 1020 -c 2 -a 0 -i 68 -k RTR 
- -t 1.423010481 -s 1 -d 2 -p cbr -e 1020 -c 2 -a 0 -i 68 -k RTR
h -t 1.423010481 -s 1 -d 2 -p cbr -e 1020 -c 2 -a 0 -i 68 -k RTR
+ -t 1.426406007 -s 2 -d 4 -p cbr -e 1020 -c 2 -a 0 -i 68 -k RTR 
- -t 1.426406007 -s 2 -d 4 -p cbr -e 1020 -c 2 -a 0 -i 68 -k RTR
h -t 1.426406007 -s 2 -d 4 -p cbr -e 1020 -c 2 -a 0 -i 68 -k RTR
+ -t 1.429361534 -s 4 -d 5 -p cbr -e 1020 -c 2 -a 0 -i 68 -k RTR 
- -t 1.429361534 -s 4 -d 5 -p cbr -e 1020 -c 2 -a 0 -i 68 -k RTR
h -t 1.429361534 -s 4 -d 5 -p cbr -e 1020 -c 2 -a 0 -i 68 -k RTR
r -t 1.432676016 -s 5 -d 5 -p cbr -e 1000 -c 2 -a 0 -i 68 -k AGT
+ -t 1.560000000 -s 0 -d -1 -p cbr -e 1000 -c 2 -a 0 -i 69 -k AGT 
- -t 1.560000000 -s 0 -d -1 -p cbr -e 1000 -c 2 -a 0 -i 69 -k AGT
h -t 1.560000000 -s 0 -d -1 -p cbr -e 1000 -c 2 -a 0 -i 69 -k AGT
+ -t 1.560000000 -s 0 -d 1 -p cbr -e 1020 -c 2 -a 0 -i 69 -k RTR 
- -t 1.560000000 -s 0 -d 1 -p cbr -e 1020 -c 2 -a 0 -i 69 -k RTR
h -t 1.560000000 -s 0 -d 1 -p cbr -e 1020 -c 2 -a 0 -i 69 -k RTR
+ -t 1.563110481 -s 1 -d 2 -p cbr -e 1020 -c 2 -a 0 -i 69 -k RTR 
- -t 1.563110481 -s 1 -d 2 -p cbr -e 1020 -c 2 -a 0 -i 69 -k RTR
h -t 1.563110481 -s 1 -d 2 -p cbr -e 1020 -c 2 -a 0 -i 69 -k RTR
+ -t 1.566126041 -s 2 -d 4 -p cbr -e 1020 -c 2 -a 0 -i 69 -k RTR 
- -t 1.566126041 -s 2 -d 4 -p cbr -e 1020 -c 2 -a 0 -i 69 -k RTR
h -t 1.566126041 -s 2 -d 4 -p cbr -e 1020 -c 2 -a 0 -i 69 -k RTR
+ -t 1.569141601 -s 4 -d 5 -p cbr -e 1020 -c 2 -a 0 -i 69 -k RTR 
- -t 1.569141601 -s 4 -d 5 -p cbr -e 1020 -c 2 -a 0 -i 69 -k RTR
h -t 1.569141601 -s 4 -d 5 -p cbr -e 1020 -c 2 -a 0 -i 69 -k RTR
r -t 1.572376083 -s 5 -d 5 -p cbr -e 1000 -c 2 -a 0 -i 69 -k AGT
+ -t 1.700000000 -s 0 -d -1 -p cbr -e 1000 -c 2 -a 0 -i 70 -k AGT 
- -t 1.700000000 -s 0 -d -1 -p cbr -e 1000 -c 2 -a 0 -i 70 -k AGT