s -t 0.100284093 -Hs 1 -Hd 0 -Ni 1 -Nx 55.00 -Ny 20.00 -Nz 0.00 -Ne -1.000000 -Nl RTR -Nw --- -Ma 0 -Md 0 -Ms 0 -Mt 0 -Is 1.255 -Id -1.255 -It AODVUU -Il 48 -If 0 -Ii 1 -Iv 1 -P aodvuu -Pt 0x0 -Ph 2 -Pd 1 -Pds 1 -Ps 255 -Pl 32.000000 -Pc HELLO 
s -t 0.100284093 -Hs 1 -Hd 0 -Ni 1 -Nx 55.00 -Ny 20.00 -Nz 0.00 -Ne -1.000000 -Nl RTR -Nw --- -Ma 0 -Md 0 -Ms 0 -Mt 0 -Is 1.255 -Id -1.255 -It AODVUU -Il 48 -If 0 -Ii 1 -Iv 1 -P aodvuu -Pt 0x0 -Ph 2 -Pd 1 -Pds 1 -Ps 255 -Pl 32.000000 -Pc HELLO 
s -t 0.100284093 -Hs 1 -Hd 0 -Ni 1 -Nx 55.00 -Ny 20.00 -Nz 0.00 -Ne -1.000000 -Nl RTR -Nw --- -Ma 0 -Md 0 -Ms 0 -Mt 0 -Is 1.255 -Id -1.255 -It AODVUU -Il 48 -If 0 -Ii 1 -Iv 1 -P aodvuu -Pt 0x0 -Ph 2 -Pd 1 -Pds 1 -Ps 255 -Pl 32.000000 -Pc HELLO 
s -t 0.100359093 -Hs 1 -Hd 0 -Ni 1 -Nx 55.00 -Ny 20.00 -Nz 0.00 -Ne -1.000000 -Nl MAC -Nw --- -Ma 0 -Md ffffffff -Ms 3 -Mt 800 -Is 1.255 -Id -1.255 -It AODVUU -Il 106 -If 0 -Ii 1 -Iv 1 -P aodvuu -Pt 0x0 -Ph 2 -Pd 1 -Pds 1 -Ps 255 -Pl 32.000000 -Pc HELLO 
s -t 0.100519093 -Hs 1 -Hd 0 -Ni 1 -Nx 55.00 -Ny 20.00 -Nz 0.00 -Ne -1.000000 -Nl MAC -Nw --- -Ma 0 -Md ffffffff -Ms 4 -Mt 800 -Is 1.255 -Id -1.255 -It AODVUU -Il 106 -If 0 -Ii 1 -Iv 1 -P aodvuu -Pt 0x0 -Ph 2 -Pd 1 -Pds 1 -Ps 255 -Pl 32.000000 -Pc HELLO 
s -t 0.100559093 -Hs 1 -Hd 0 -Ni 1 -Nx 55.00 -Ny 20.00 -Nz 0.00 -Ne -1.000000 -Nl MAC -Nw --- -Ma 0 -Md ffffffff -Ms 5 -Mt 800 -Is 1.255 -Id -1.255 -It AODVUU -Il 106 -If 0 -Ii 1 -Iv 1 -P aodvuu -Pt 0x0 -Ph 2 -Pd 1 -Pds 1 -Ps 255 -Pl 32.000000 -Pc HELLO 
r -t 0.101207260 -Hs 0 -Hd 0 -Ni 0 -Nx 5.00 -Ny 20.00 -Nz 0.00 -Ne -1.000000 -Nl MAC -Nw --- -Ma 0 -Md ffffffff -Ms 3 -Mt 800 -Is 1.255 -Id -1.255 -It AODVUU -Il 48 -If 0 -Ii 1 -Iv 1 -P aodvuu -Pt 0x0 -Ph 2 -Pd 1 -Pds 1 -Ps 255 -Pl 32.000000 -Pc HELLO 
r -t 0.101207260 -Hs 2 -Hd 0 -Ni 2 -Nx 105.00 -Ny 20.00 -Nz 0.00 -Ne -1.000000 -Nl MAC -Nw --- -Ma 0 -Md ffffffff -Ms 3 -Mt 800 -Is 1.255 -Id -1.255 -It AODVUU -Il 48 -If 0 -Ii 1 -Iv 1 -P aodvuu -Pt 0x0 -Ph 2 -Pd 1 -Pds 1 -Ps 255 -Pl 32.000000 -Pc HELLO 
r -t 0.101207427 -Hs 3 -Hd 0 -Ni 3 -Nx 155.00 -Ny 20.00 -Nz 0.00 -Ne -1.000000 -Nl MAC -Nw --- -Ma 0 -Md ffffffff -Ms 3 -Mt 800 -Is 1.255 -Id -1.255 -It AODVUU -Il 48 -If 0 -Ii 1 -Iv 1 -P aodvuu -Pt 0x0 -Ph 2 -Pd 1 -Pds 1 -Ps 255 -Pl 32.000000 -Pc HELLO 
r -t 0.101232260 -Hs 0 -Hd 0 -Ni 0 -Nx 5.00 -Ny 20.00 -Nz 0.00 -Ne -1.000000 -Nl RTR -Nw --- -Ma 0 -Md ffffffff -Ms 3 -Mt 800 -Is 1.255 -Id -1.255 -It AODVUU -Il 48 -If 0 -Ii 1 -Iv 1 -P aodvuu -Pt 0x0 -Ph 2 -Pd 1 -Pds 1 -Ps 255 -Pl 32.000000 -Pc HELLO 
r -t 0.101232260 -Hs 2 -Hd 0 -Ni 2 -Nx 105.00 -Ny 20.00 -Nz 0.00 -Ne -1.000000 -Nl RTR -Nw --- -Ma 0 -Md ffffffff -Ms 3 -Mt 800 -Is 1.255 -Id -1.255 -It AODVUU -Il 48 -If 0 -Ii 1 -Iv 1 -P aodvuu -Pt 0x0 -Ph 2 -Pd 1 -Pds 1 -Ps 255 -Pl 32.000000 -Pc HELLO 
s -t 0.101232260 -Hs 0 -Hd 1 -Ni 0 -Nx 5.00 -Ny 20.00 -Nz 0.00 -Ne -1.000000 -Nl RTR -Nw --- -Ma 0 -Md 0 -Ms 0 -Mt 0 -Is 0.255 -Id 1.255 -It AODVUU -Il 36 -If 0 -Ii 4 -Iv 1 -P aodvuu -Pt 0x9 -Ph 0 -Pd 1 -Pds 0 -Ps 511 -Pl 0.000000 -Pc REPLY 
s -t 0.101232260 -Hs 2 -Hd 1 -Ni 2 -Nx 105.00 -Ny 20.00 -Nz 0.00 -Ne -1.000000 -Nl RTR -Nw --- -Ma 0 -Md 0 -Ms 0 -Mt 0 -Is 2.255 -Id 1.255 -It AODVUU -Il 36 -If 0 -Ii 5 -Iv 1 -P aodvuu -Pt 0x9 -Ph 0 -Pd 1 -Pds 2 -Ps 511 -Pl 0.000000 -Pc REPLY 
r -t 0.101232427 -Hs 3 -Hd 0 -Ni 3 -Nx 155.00 -Ny 20.00 -Nz 0.00 -Ne -1.000000 -Nl RTR -Nw --- -Ma 0 -Md ffffffff -Ms 3 -Mt 800 -Is 1.255 -Id -1.255 -It AODVUU -Il 48 -If 0 -Ii 1 -Iv 1 -P aodvuu -Pt 0x0 -Ph 2 -Pd 1 -Pds 1 -Ps 255 -Pl 32.000000 -Pc HELLO 
s -t 0.101232427 -Hs 3 -Hd 1 -Ni 3 -Nx 155.00 -Ny 20.00 -Nz 0.00 -Ne -1.000000 -Nl RTR -Nw --- -Ma 0 -Md 0 -Ms 0 -Mt 0 -Is 3.255 -Id 1.255 -It AODVUU -Il 36 -If 0 -Ii 6 -Iv 1 -P aodvuu -Pt 0x9 -Ph 0 -Pd 1 -Pds 3 -Ps 511 -Pl 0.000000 -Pc REPLY 
r -t 0.101367260 -Hs 0 -Hd 0 -Ni 0 -Nx 5.00 -Ny 20.00 -Nz 0.00 -Ne -1.000000 -Nl MAC -Nw --- -Ma 0 -Md ffffffff -Ms 4 -Mt 800 -Is 1.255 -Id -1.255 -It AODVUU -Il 48 -If 0 -Ii 1 -Iv 1 -P aodvuu -Pt 0x0 -Ph 2 -Pd 1 -Pds 1 -Ps 255 -Pl 32.000000 -Pc HELLO 
r -t 0.101367260 -Hs 2 -Hd 0 -Ni 2 -Nx 105.00 -Ny 20.00 -Nz 0.00 -Ne -1.000000 -Nl MAC -Nw --- -Ma 0 -Md ffffffff -Ms 4 -Mt 800 -Is 1.255 -Id -1.255 -It AODVUU -Il 48 -If 0 -Ii 1 -Iv 1 -P aodvuu -Pt 0x0 -Ph 2 -Pd 1 -Pds 1 -Ps 255 -Pl 32.000000 -Pc HELLO 
r -t 0.101367427 -Hs 3 -Hd 0 -Ni 3 -Nx 155.00 -Ny 20.00 -Nz 0.00 -Ne -1.000000 -Nl MAC -Nw --- -Ma 0 -Md ffffffff -Ms 4 -Mt 800 -Is 1.255 -Id -1.255 -It AODVUU -Il 48 -If 0 -Ii 1 -Iv 1 -P aodvuu -Pt 0x0 -Ph 2 -Pd 1 -Pds 1 -Ps 255 -Pl 32.000000 -Pc HELLO 
r -t 0.101392260 -Hs 0 -Hd 0 -Ni 0 -Nx 5.00 -Ny 20.00 -Nz 0.00 -Ne -1.000000 -Nl RTR -Nw --- -Ma 0 -Md ffffffff -Ms 4 -Mt 800 -Is 1.255 -Id -1.255 -It AODVUU -Il 48 -If 0 -Ii 1 -Iv 1 -P aodvuu -Pt 0x0 -Ph 2 -Pd 1 -Pds 1 -Ps 255 -Pl 32.000000 -Pc HELLO 
r -t 0.101392260 -Hs 2 -Hd 0 -Ni 2 -Nx 105.00 -Ny 20.00 -Nz 0.00 -Ne -1.000000 -Nl RTR -Nw --- -Ma 0 -Md ffffffff -Ms 4 -Mt 800 -Is 1.255 -Id -1.255 -It AODVUU -Il 48 -If 0 -Ii 1 -Iv 1 -P aodvuu -Pt 0x0 -Ph 2 -Pd 1 -Pds 1 -Ps 255 -Pl 32.000000 -Pc HELLO 
s -t 0.101392260 -Hs 0 -Hd 1 -Ni 0 -Nx 5.00 -Ny 20.00 -Nz 0.00 -Ne -1.000000 -Nl RTR -Nw --- -Ma 0 -Md 0 -Ms 0 -Mt 0 -Is 0.255 -Id 1.255 -It AODVUU -Il 36 -If 0 -Ii 7 -Iv 1 -P aodvuu -Pt 0x9 -Ph 0 -Pd 1 -Pds 0 -Ps 511 -Pl 0.000000 -Pc REPLY 
d -t 0.101392260 -Hs 0 -Hd 1 -Ni 0 -Nx 5.00 -Ny 20.00 -Nz 0.00 -Ne -1.000000 -Nl IFQ -Nw ARP -Ma 0 -Md 0 -Ms 0 -Mt 800 -Is 0.255 -Id 1.255 -It AODVUU -Il 36 -If 0 -Ii 4 -Iv 1 -P aodvuu -Pt 0x9 -Ph 0 -Pd 1 -Pds 0 -Ps 511 -Pl 0.000000 -Pc REPLY 
s -t 0.101392260 -Hs 2 -Hd 1 -Ni 2 -Nx 105.00 -Ny 20.00 -Nz 0.00 -Ne -1.000000 -Nl RTR -Nw --- -Ma 0 -Md 0 -Ms 0 -Mt 0 -Is 2.255 -Id 1.255 -It AODVUU -Il 36 -If 0 -Ii 8 -Iv 1 -P aodvuu -Pt 0x9 -Ph 0 -Pd 1 -Pds 2 -Ps 511 -Pl 0.000000 -Pc REPLY 
d -t 0.101392260 -Hs 2 -Hd 1 -Ni 2 -Nx 105.00 -Ny 20.00 -Nz 0.00 -Ne -1.000000 -Nl IFQ -Nw ARP -Ma 0 -Md 0 -Ms 6 -Mt 800 -Is 2.255 -Id 1.255 -It AODVUU -Il 36 -If 0 -Ii 5 -Iv 1 -P aodvuu -Pt 0x9 -Ph 0 -Pd 1 -Pds 2 -Ps 511 -Pl 0.000000 -Pc REPLY 
r -t 0.101392427 -Hs 3 -Hd 0 -Ni 3 -Nx 155.00 -Ny 20.00 -Nz 0.00 -Ne -1.000000 -Nl RTR -Nw --- -Ma 0 -Md ffffffff -Ms 4 -Mt 800 -Is 1.255 -Id -1.255 -It AODVUU -Il 48 -If 0 -Ii 1 -Iv 1 -P aodvuu -Pt 0x0 -Ph 2 -Pd 1 -Pds 1 -Ps 255 -Pl 32.000000 -Pc HELLO 
s -t 0.101392427 -Hs 3 -Hd 1 -Ni 3 -Nx 155.00 -Ny 20.00 -Nz 0.00 -Ne -1.000000 -Nl RTR -Nw --- -Ma 0 -Md 0 -Ms 0 -Mt 0 -Is 3.255 -Id 1.255 -It AODVUU -Il 36 -If 0 -Ii 9 -Iv 1 -P aodvuu -Pt 0x9 -Ph 0 -Pd 1 -Pds 3 -Ps 511 -Pl 0.000000 -Pc REPLY 
d -t 0.101392427 -Hs 3 -Hd 1 -Ni 3 -Nx 155.00 -Ny 20.00 -Nz 0.00 -Ne -1.000000 -Nl IFQ -Nw ARP -Ma 0 -Md 0 -Ms 9 -Mt 800 -Is 3.255 -Id 1.255 -It AODVUU -Il 36 -If 0 -Ii 6 -Iv 1 -P aodvuu -Pt 0x9 -Ph 0 -Pd 1 -Pds 3 -Ps 511 -Pl 0.000000 -Pc REPLY 
r -t 0.101407260 -Hs 0 -Hd 0 -Ni 0 -Nx 5.00 -Ny 20.00 -Nz 0.00 -Ne -1.000000 -Nl MAC -Nw --- -Ma 0 -Md ffffffff -Ms 5 -Mt 800 -Is 1.255 -Id -1.255 -It AODVUU -Il 48 -If 0 -Ii 1 -Iv 1 -P aodvuu -Pt 0x0 -Ph 2 -Pd 1 -Pds 1 -Ps 255 -Pl 32.000000 -Pc HELLO 
r -t 0.101407260 -Hs 2 -Hd 0 -Ni 2 -Nx 105.00 -Ny 20.00 -Nz 0.00 -Ne -1.000000 -Nl MAC -Nw --- -Ma 0 -Md ffffffff -Ms 5 -Mt 800 -Is 1.255 -Id -1.255 -It AODVUU -Il 48 -If 0 -Ii 1 -Iv 1 -P aodvuu -Pt 0x0 -Ph 2 -Pd 1 -Pds 1 -Ps 255 -Pl 32.000000 -Pc HELLO 
r -t 0.101407427 -Hs 3 -Hd 0 -Ni 3 -Nx 155.00 -Ny 20.00 -Nz 0.00 -Ne -1.000000 -Nl MAC -Nw --- -Ma 0 -Md ffffffff -Ms 5 -Mt 800 -Is 1.255 -Id -1.255 -It AODVUU -Il 48 -If 0 -Ii 1 -Iv 1 -P aodvuu -Pt 0x0 -Ph 2 -Pd 1 -Pds 1 -Ps 255 -Pl 32.000000 -Pc HELLO 
r -t 0.101432260 -Hs 0 -Hd 0 -Ni 0 -Nx 5.00 -Ny 20.00 -Nz 0.00 -Ne -1.000000 -Nl RTR -Nw --- -Ma 0 -Md ffffffff -Ms 5 -Mt 800 -Is 1.255 -Id -1.255 -It AODVUU -Il 48 -If 0 -Ii 1 -Iv 1 -P aodvuu -Pt 0x0 -Ph 2 -Pd 1 -Pds 1 -Ps 255 -Pl 32.000000 -Pc HELLO 
r -t 0.101432260 -Hs 2 -Hd 0 -Ni 2 -Nx 105.00 -Ny 20.00 -Nz 0.00 -Ne -1.000000 -Nl RTR -Nw --- -Ma 0 -Md ffffffff -Ms 5 -Mt 800 -Is 1.255 -Id -1.255 -It AODVUU -Il 48 -If 0 -Ii 1 -Iv 1 -P aodvuu -Pt 0x0 -Ph 2 -Pd 1 -Pds 1 -Ps 255 -Pl 32.000000 -Pc HELLO 
s -t 0.101432260 -Hs 0 -Hd 1 -Ni 0 -Nx 5.00 -Ny 20.00 -Nz 0.00 -Ne -1.000000 -Nl RTR -Nw --- -Ma 0 -Md 0 -Ms 0 -Mt 0 -Is 0.255 -Id 1.255 -It AODVUU -Il 36 -If 0 -Ii 10 -Iv 1 -P aodvuu -Pt 0x9 -Ph 0 -Pd 1 -Pds 0 -Ps 511 -Pl 0.000000 -Pc REPLY 
d -t 0.101432260 -Hs 0 -Hd 1 -Ni 0 -Nx 5.00 -Ny 20.00 -Nz 0.00 -Ne -1.000000 -Nl IFQ -Nw ARP -Ma 0 -Md 0 -Ms 0 -Mt 800 -Is 0.255 -Id 1.255 -It AODVUU -Il 36 -If 0 -Ii 7 -Iv 1 -P aodvuu -Pt 0x9 -Ph 0 -Pd 1 -Pds 0 -Ps 511 -Pl 0.000000 -Pc REPLY 
s -t 0.101432260 -Hs 2 -Hd 1 -Ni 2 -Nx 105.00 -Ny 20.00 -Nz 0.00 -Ne -1.000000 -Nl RTR -Nw --- -Ma 0 -Md 0 -Ms 0 -Mt 0 -Is 2.255 -Id 1.255 -It AODVUU -Il 36 -If 0 -Ii 11 -Iv 1 -P aodvuu -Pt 0x9 -Ph 0 -Pd 1 -Pds 2 -Ps 511 -Pl 0.000000 -Pc REPLY 
d -t 0.101432260 -Hs 2 -Hd 1 -Ni 2 -Nx 105.00 -Ny 20.00 -Nz 0.00 -Ne -1.000000 -Nl IFQ -Nw ARP -Ma 0 -Md 0 -Ms 6 -Mt 800 -Is 2.255 -Id 1.255 -It AODVUU -Il 36 -If 0 -Ii 8 -Iv 1 -P aodvuu -Pt 0x9 -Ph 0 -Pd 1 -Pds 2 -Ps 511 -Pl 0.000000 -Pc REPLY 
r -t 0.101432427 -Hs 3 -Hd 0 -Ni 3 -Nx 155.00 -Ny 20.00 -Nz 0.00 -Ne -1.000000 -Nl RTR -Nw --- -Ma 0 -Md ffffffff -Ms 5 -Mt 800 -Is 1.255 -Id -1.255 -It AODVUU -Il 48 -If 0 -Ii 1 -Iv 1 -P aodvuu -Pt 0x0 -Ph 2 -Pd 1 -Pds 1 -Ps 255 -Pl 32.000000 -Pc HELLO 
s -t 0.101432427 -Hs 3 -Hd 1 -Ni 3 -Nx 155.00 -Ny 20.00 -Nz 0.00 -Ne -1.000000 -Nl RTR -Nw --- -Ma 0 -Md 0 -Ms 0 -Mt 0 -Is 3.255 -Id 1.255 -It AODVUU -Il 36 -If 0 -Ii 12 -Iv 1 -P aodvuu -Pt 0x9 -Ph 0 -Pd 1 -Pds 3 -Ps 511 -Pl 0.000000 -Pc REPLY 
d -t 0.101432427 -Hs 3 -Hd 1 -Ni 3 -Nx 155.00 -Ny 20.00 -Nz 0.00 -Ne -1.000000 -Nl IFQ -Nw ARP -Ma 0 -Md 0 -Ms 9 -Mt 800 -Is 3.255 -Id 1.255 -It AODVUU -Il 36 -If 0 -Ii 9 -Iv 1 -P aodvuu -Pt 0x9 -Ph 0 -Pd 1 -Pds 3 -Ps 511 -Pl 0.000000 -Pc REPLY 
s -t 0.101527427 -Hs 3 -Hd -2 -Ni 3 -Nx 155.00 -Ny 20.00 -Nz 0.00 -Ne -1.000000 -Nl MAC -Nw --- -Ma 0 -Md ffffffff -Ms 9 -Mt 806 -P arp -Po REQUEST -Pms 9 -Ps 3 -Pmd 0 -Pd 1 
s -t 0.101762453 -Hs 2 -Hd 0 -Ni 2 -Nx 105.00 -Ny 20.00 -Nz 0.00 -Ne -1.000000 -Nl RTR -Nw --- -Ma 0 -Md 0 -Ms 0 -Mt 0 -Is 2.255 -Id -1.255 -It AODVUU -Il 48 -If 0 -Ii 2 -Iv 1 -P aodvuu -Pt 0x0 -Ph 2 -Pd 2 -Pds 1 -Ps 255 -Pl 32.000000 -Pc HELLO 
s -t 0.101762453 -Hs 2 -Hd 0 -Ni 2 -Nx 105.00 -Ny 20.00 -Nz 0.00 -Ne -1.000000 -Nl RTR -Nw --- -Ma 0 -Md 0 -Ms 0 -Mt 0 -Is 2.255 -Id -1.255 -It AODVUU -Il 48 -If 0 -Ii 2 -Iv 1 -P aodvuu -Pt 0x0 -Ph 2 -Pd 2 -Pds 1 -Ps 255 -Pl 32.000000 -Pc HELLO 
s -t 0.101762453 -Hs 2 -Hd 0 -Ni 2 -Nx 105.00 -Ny 20.00 -Nz 0.00 -Ne -1.000000 -Nl RTR -Nw --- -Ma 0 -Md 0 -Ms 0 -Mt 0 -Is 2.255 -Id -1.255 -It AODVUU -Il 48 -If 0 -Ii 2 -Iv 1 -P aodvuu -Pt 0x0 -Ph 2 -Pd 2 -Pds 1 -Ps 255 -Pl 32.000000 -Pc HELLO 
s -t 0.101997453 -Hs 2 -Hd 0 -Ni 2 -Nx 105.00 -Ny 20.00 -Nz 0.00 -Ne -1.000000 -Nl MAC -Nw --- -Ma 0 -Md ffffffff -Ms 7 -Mt 800 -Is 2.255 -Id -1.255 -It AODVUU -Il 106 -If 0 -Ii 2 -Iv 1 -P aodvuu -Pt 0x0 -Ph 2 -Pd 2 -Pds 1 -Ps 255 -Pl 32.000000 -Pc HELLO 
s -t 0.102197453 -Hs 2 -Hd 0 -Ni 2 -Nx 105.00 -Ny 20.00 -Nz 0.00 -Ne -1.000000 -Nl MAC -Nw --- -Ma 0 -Md ffffffff -Ms 8 -Mt 800 -Is 2.255 -Id -1.255 -It AODVUU -Il 106 -If 0 -Ii 2 -Iv 1 -P aodvuu -Pt 0x0 -Ph 2 -Pd 2 -Pds 1 -Ps 255 -Pl 32.000000 -Pc HELLO 
r -t 0.102215593 -Hs 2 -Hd -2 -Ni 2 -Nx 105.00 -Ny 20.00 -Nz 0.00 -Ne -1.000000 -Nl MAC -Nw --- -Ma 0 -Md ffffffff -Ms 9 -Mt 806 -P arp -Po REQUEST -Pms 9 -Ps 3 -Pmd 0 -Pd 1 
r -t 0.102215760 -Hs 1 -Hd -2 -Ni 1 -Nx 55.00 -Ny 20.00 -Nz 0.00 -Ne -1.000000 -Nl MAC -Nw --- -Ma 0 -Md ffffffff -Ms 9 -Mt 806 -P arp -Po REQUEST -Pms 9 -Ps 3 -Pmd 0 -Pd 1 
r -t 0.102215927 -Hs 0 -Hd -2 -Ni 0 -Nx 5.00 -Ny 20.00 -Nz 0.00 -Ne -1.000000 -Nl MAC -Nw --- -Ma 0 -Md ffffffff -Ms 9 -Mt 806 -P arp -Po REQUEST -Pms 9 -Ps 3 -Pmd 0 -Pd 1 
s -t 0.102285593 -Hs 2 -Hd -2 -Ni 2 -Nx 105.00 -Ny 20.00 -Nz 0.00 -Ne -1.000000 -Nl MAC -Nw --- -Ma 0 -Md ffffffff -Ms 6 -Mt 806 -P arp -Po REQUEST -Pms 6 -Ps 2 -Pmd 0 -Pd 1 
r -t 0.102845620 -Hs 1 -Hd 0 -Ni 1 -Nx 55.00 -Ny 20.00 -Nz 0.00 -Ne -1.000000 -Nl MAC -Nw --- -Ma 0 -Md ffffffff -Ms 7 -Mt 800 -Is 2.255 -Id -1.255 -It AODVUU -Il 48 -If 0 -Ii 2 -Iv 1 -P aodvuu -Pt 0x0 -Ph 2 -Pd 2 -Pds 1 -Ps 255 -Pl 32.000000 -Pc HELLO 
r -t 0.102845620 -Hs 3 -Hd 0 -Ni 3 -Nx 155.00 -Ny 20.00 -Nz 0.00 -Ne -1.000000 -Nl MAC -Nw --- -Ma 0 -Md ffffffff -Ms 7 -Mt 800 -Is 2.255 -Id -1.255 -It AODVUU -Il 48 -If 0 -Ii 2 -Iv 1 -P aodvuu -Pt 0x0 -Ph 2 -Pd 2 -Pds 1 -Ps 255 -Pl 32.000000 -Pc HELLO 
r -t 0.102845787 -Hs 0 -Hd 0 -Ni 0 -Nx 5.00 -Ny 20.00 -Nz 0.00 -Ne -1.000000 -Nl MAC -Nw --- -Ma 0 -Md ffffffff -Ms 7 -Mt 800 -Is 2.255 -Id -1.255 -It AODVUU -Il 48 -If 0 -Ii 2 -Iv 1 -P aodvuu -Pt 0x0 -Ph 2 -Pd 2 -Pds 1 -Ps 255 -Pl 32.000000 -Pc HELLO 
r -t 0.102870620 -Hs 1 -Hd 0 -Ni 1 -Nx 55.00 -Ny 20.00 -Nz 0.00 -Ne -1.000000 -Nl RTR -Nw --- -Ma 0 -Md ffffffff -Ms 7 -Mt 800 -Is 2.255 -Id -1.255 -It AODVUU -Il 48 -If 0 -Ii 2 -Iv 1 -P aodvuu -Pt 0x0 -Ph 2 -Pd 2 -Pds 1 -Ps 255 -Pl 32.000000 -Pc HELLO 
r -t 0.102870620 -Hs 3 -Hd 0 -Ni 3 -Nx 155.00 -Ny 20.00 -Nz 0.00 -Ne -1.000000 -Nl RTR -Nw --- -Ma 0 -Md ffffffff -Ms 7 -Mt 800 -Is 2.255 -Id -1.255 -It AODVUU -Il 48 -If 0 -Ii 2 -Iv 1 -P aodvuu -Pt 0x0 -Ph 2 -Pd 2 -Pds 1 -Ps 255 -Pl 32.000000 -Pc HELLO 
s -t 0.102870620 -Hs 1 -Hd 2 -Ni 1 -Nx 55.00 -Ny 20.00 -Nz 0.00 -Ne -1.000000 -Nl RTR -Nw --- -Ma 0 -Md 0 -Ms 0 -Mt 0 -Is 1.255 -Id 2.255 -It AODVUU -Il 36 -If 0 -Ii 13 -Iv 1 -P aodvuu -Pt 0x9 -Ph 0 -Pd 2 -Pds 1 -Ps 511 -Pl 0.000000 -Pc REPLY 
s -t 0.102870620 -Hs 3 -Hd 2 -Ni 3 -Nx 155.00 -Ny 20.00 -Nz 0.00 -Ne -1.000000 -Nl RTR -Nw --- -Ma 0 -Md 0 -Ms 0 -Mt 0 -Is 3.255 -Id 2.255 -It AODVUU -Il 36 -If 0 -Ii 14 -Iv 1 -P aodvuu -Pt 0x9 -Ph 0 -Pd 2 -Pds 3 -Ps 511 -Pl 0.000000 -Pc REPLY 
r -t 0.102870787 -Hs 0 -Hd 0 -Ni 0 -Nx 5.00 -Ny 20.00 -Nz 0.00 -Ne -1.000000 -Nl RTR -Nw --- -Ma 0 -Md ffffffff -Ms 7 -Mt 800 -Is 2.255 -Id -1.255 -It AODVUU -Il 48 -If 0 -Ii 2 -Iv 1 -P aodvuu -Pt 0x0 -Ph 2 -Pd 2 -Pds 1 -Ps 255 -Pl 32.000000 -Pc HELLO 
s -t 0.102870787 -Hs 0 -Hd 2 -Ni 0 -Nx 5.00 -Ny 20.00 -Nz 0.00 -Ne -1.000000 -Nl RTR -Nw --- -Ma 0 -Md 0 -Ms 0 -Mt 0 -Is 0.255 -Id 2.255 -It AODVUU -Il 36 -If 0 -Ii 15 -Iv 1 -P aodvuu -Pt 0x9 -Ph 0 -Pd 2 -Pds 0 -Ps 511 -Pl 0.000000 -Pc REPLY 
r -t 0.102973760 -Hs 1 -Hd -2 -Ni 1 -Nx 55.00 -Ny 20.00 -Nz 0.00 -Ne -1.000000 -Nl MAC -Nw --- -Ma 0 -Md ffffffff -Ms 6 -Mt 806 -P arp -Po REQUEST -Pms 6 -Ps 2 -Pmd 0 -Pd 1 
r -t 0.102973760 -Hs 3 -Hd -2 -Ni 3 -Nx 155.00 -Ny 20.00 -Nz 0.00 -Ne -1.000000 -Nl MAC -Nw --- -Ma 0 -Md ffffffff -Ms 6 -Mt 806 -P arp -Po REQUEST -Pms 6 -Ps 2 -Pmd 0 -Pd 1 
r -t 0.102973927 -Hs 0 -Hd -2 -Ni 0 -Nx 5.00 -Ny 20.00 -Nz 0.00 -Ne -1.000000 -Nl MAC -Nw --- -Ma 0 -Md ffffffff -Ms 6 -Mt 806 -P arp -Po REQUEST -Pms 6 -Ps 2 -Pmd 0 -Pd 1 
r -t 0.103045620 -Hs 1 -Hd 0 -Ni 1 -Nx 55.00 -Ny 20.00 -Nz 0.00 -Ne -1.000000 -Nl MAC -Nw --- -Ma 0 -Md ffffffff -Ms 8 -Mt 800 -Is 2.255 -Id -1.255 -It AODVUU -Il 48 -If 0 -Ii 2 -Iv 1 -P aodvuu -Pt 0x0 -Ph 2 -Pd 2 -Pds 1 -Ps 255 -Pl 32.000000 -Pc HELLO 
r -t 0.103045620 -Hs 3 -Hd 0 -Ni 3 -Nx 155.00 -Ny 20.00 -Nz 0.00 -Ne -1.000000 -Nl MAC -Nw --- -Ma 0 -Md ffffffff -Ms 8 -Mt 800 -Is 2.255 -Id -1.255 -It AODVUU -Il 48 -If 0 -Ii 2 -Iv 1 -P aodvuu -Pt 0x0 -Ph 2 -Pd 2 -Pds 1 -Ps 255 -Pl 32.000000 -Pc HELLO 
r -t 0.103045787 -Hs 0 -Hd 0 -Ni 0 -Nx 5.00 -Ny 20.00 -Nz 0.00 -Ne -1.000000 -Nl MAC -Nw --- -Ma 0 -Md ffffffff -Ms 8 -Mt 800 -Is 2.255 -Id -1.255 -It AODVUU -Il 48 -If 0 -Ii 2 -Iv 1 -P aodvuu -Pt 0x0 -Ph 2 -Pd 2 -Pds 1 -Ps 255 -Pl 32.000000 -Pc HELLO 
r -t 0.103070620 -Hs 1 -Hd 0 -Ni 1 -Nx 55.00 -Ny 20.00 -Nz 0.00 -Ne -1.000000 -Nl RTR -Nw --- -Ma 0 -Md ffffffff -Ms 8 -Mt 800 -Is 2.255 -Id -1.255 -It AODVUU -Il 48 -If 0 -Ii 2 -Iv 1 -P aodvuu -Pt 0x0 -Ph 2 -Pd 2 -Pds 1 -Ps 255 -Pl 32.000000 -Pc HELLO 
r -t 0.103070620 -Hs 3 -Hd 0 -Ni 3 -Nx 155.00 -Ny 20.00 -Nz 0.00 -Ne -1.000000 -Nl RTR -Nw --- -Ma 0 -Md ffffffff -Ms 8 -Mt 800 -Is 2.255 -Id -1.255 -It AODVUU -Il 48 -If 0 -Ii 2 -Iv 1 -P aodvuu -Pt 0x0 -Ph 2 -Pd 2 -Pds 1 -Ps 255 -Pl 32.000000 -Pc HELLO 
s -t 0.103070620 -Hs 1 -Hd 2 -Ni 1 -Nx 55.00 -Ny 20.00 -Nz 0.00 -Ne -1.000000 -Nl RTR -Nw --- -Ma 0 -Md 0 -Ms 0 -Mt 0 -Is 1.255 -Id 2.255 -It AODVUU -Il 36 -If 0 -Ii 16 -Iv 1 -P aodvuu -Pt 0x9 -Ph 0 -Pd 2 -Pds 1 -Ps 511 -Pl 0.000000 -Pc REPLY 
s -t 0.103070620 -Hs 3 -Hd 2 -Ni 3 -Nx 155.00 -Ny 20.00 -Nz 0.00 -Ne -1.000000 -Nl RTR -Nw --- -Ma 0 -Md 0 -Ms 0 -Mt 0 -Is 3.255 -Id 2.255 -It AODVUU -Il 36 -If 0 -Ii 17 -Iv 1 -P aodvuu -Pt 0x9 -Ph 0 -Pd 2 -Pds 3 -Ps 511 -Pl 0.000000 -Pc REPLY 
r -t 0.103070787 -Hs 0 -Hd 0 -Ni 0 -Nx 5.00 -Ny 20.00 -Nz 0.00 -Ne -1.000000 -Nl RTR -Nw --- -Ma 0 -Md ffffffff -Ms 8 -Mt 800 -Is 2.255 -Id -1.255 -It AODVUU -Il 48 -If 0 -Ii 2 -Iv 1 -P aodvuu -Pt 0x0 -Ph 2 -Pd 2 -Pds 1 -Ps 255 -Pl 32.000000 -Pc HELLO 
s -t 0.103070787 -Hs 0 -Hd 2 -Ni 0 -Nx 5.00 -Ny 20.00 -Nz 0.00 -Ne -1.000000 -Nl RTR -Nw --- -Ma 0 -Md 0 -Ms 0 -Mt 0 -Is 0.255 -Id 2.255 -It AODVUU -Il 36 -If 0 -Ii 18 -Iv 1 -P aodvuu -Pt 0x9 -Ph 0 -Pd 2 -Pds 0 -Ps 511 -Pl 0.000000 -Pc REPLY 
s -t 0.103123927 -Hs 0 -Hd -2 -Ni 0 -Nx 5.00 -Ny 20.00 -Nz 0.00 -Ne -1.000000 -Nl MAC -Nw --- -Ma 0 -Md ffffffff -Ms 0 -Mt 806 -P arp -Po REQUEST -Pms 0 -Ps 0 -Pmd 0 -Pd 1 
r -t 0.103812093 -Hs 1 -Hd -2 -Ni 1 -Nx 55.00 -Ny 20.00 -Nz 0.00 -Ne -1.000000 -Nl MAC -Nw --- -Ma 0 -Md ffffffff -Ms 0 -Mt 806 -P arp -Po REQUEST -Pms 0 -Ps 0 -Pmd 0 -Pd 1 
r -t 0.103812260 -Hs 2 -Hd -2 -Ni 2 -Nx 105.00 -Ny 20.00 -Nz 0.00 -Ne -1.000000 -Nl MAC -Nw --- -Ma 0 -Md ffffffff -Ms 0 -Mt 806 -P arp -Po REQUEST -Pms 0 -Ps 0 -Pmd 0 -Pd 1 
r -t 0.103812427 -Hs 3 -Hd -2 -Ni 3 -Nx 155.00 -Ny 20.00 -Nz 0.00 -Ne -1.000000 -Nl MAC -Nw --- -Ma 0 -Md ffffffff -Ms 0 -Mt 806 -P arp -Po REQUEST -Pms 0 -Ps 0 -Pmd 0 -Pd 1 
s -t 0.103922093 -Hs 1 -Hd -2 -Ni 1 -Nx 55.00 -Ny 20.00 -Nz 0.00 -Ne -1.000000 -Nl MAC -Nw --- -Ma 52e -Md 9 -Ms 3 -Mt 0 
r -t 0.104274427 -Hs 3 -Hd -2 -Ni 3 -Nx 155.00 -Ny 20.00 -Nz 0.00 -Ne -1.000000 -Nl MAC -Nw --- -Ma 52e -Md 9 -Ms 3 -Mt 0 
s -t 0.104284427 -Hs 3 -Hd -2 -Ni 3 -Nx 155.00 -Ny 20.00 -Nz 0.00 -Ne -1.000000 -Nl MAC -Nw --- -Ma 3f4 -Md 3 -Ms 0 -Mt 0 
r -t 0.104588760 -Hs 1 -Hd -2 -Ni 1 -Nx 55.00 -Ny 20.00 -Nz 0.00 -Ne -1.000000 -Nl MAC -Nw --- -Ma 3f4 -Md 3 -Ms 0 -Mt 0 
s -t 0.104598760 -Hs 1 -Hd -2 -Ni 1 -Nx 55.00 -Ny 20.00 -Nz 0.00 -Ne -1.000000 -Nl MAC -Nw --- -Ma 13a -Md 9 -Ms 3 -Mt 806 -P arp -Po REPLY -Pms 3 -Ps 1 -Pmd 9 -Pd 3 
r -t 0.105287093 -Hs 3 -Hd -2 -Ni 3 -Nx 155.00 -Ny 20.00 -Nz 0.00 -Ne -1.000000 -Nl MAC -Nw --- -Ma 13a -Md 9 -Ms 3 -Mt 806 -P arp -Po REPLY -Pms 3 -Ps 1 -Pmd 9 -Pd 3 
s -t 0.105297093 -Hs 3 -Hd -2 -Ni 3 -Nx 155.00 -Ny 20.00 -Nz 0.00 -Ne -1.000000 -Nl MAC -Nw --- -Ma 0 -Md 3 -Ms 0 -Mt 0 
r -t 0.105601427 -Hs 1 -Hd -2 -Ni 1 -Nx 55.00 -Ny 20.00 -Nz 0.00 -Ne -1.000000 -Nl MAC -Nw --- -Ma 0 -Md 3 -Ms 0 -Mt 0 
s -t 0.105711093 -Hs 3 -Hd -2 -Ni 3 -Nx 155.00 -Ny 20.00 -Nz 0.00 -Ne -1.000000 -Nl MAC -Nw --- -Ma 0 -Md ffffffff -Ms 9 -Mt 806 -P arp -Po REQUEST -Pms 9 -Ps 3 -Pmd 0 -Pd 1 
r -t 0.106399260 -Hs 2 -Hd -2 -Ni 2 -Nx 105.00 -Ny 20.00 -Nz 0.00 -Ne -1.000000 -Nl MAC -Nw --- -Ma 0 -Md ffffffff -Ms 9 -Mt 806 -P arp -Po REQUEST -Pms 9 -Ps 3 -Pmd 0 -Pd 1 
r -t 0.106399427 -Hs 1 -Hd -2 -Ni 1 -Nx 55.00 -Ny 20.00 -Nz 0.00 -Ne -1.000000 -Nl MAC -Nw --- -Ma 0 -Md ffffffff -Ms 9 -Mt 806 -P arp -Po REQUEST -Pms 9 -Ps 3 -Pmd 0 -Pd 1 
r -t 0.106399593 -Hs 0 -Hd -2 -Ni 0 -Nx 5.00 -Ny 20.00 -Nz 0.00 -Ne -1.000000 -Nl MAC -Nw --- -Ma 0 -Md ffffffff -Ms 9 -Mt 806 -P arp -Po REQUEST -Pms 9 -Ps 3 -Pmd 0 -Pd 1 
s -t 0.106469093 -Hs 3 -Hd -2 -Ni 3 -Nx 155.00 -Ny 20.00 -Nz 0.00 -Ne -1.000000 -Nl MAC -Nw --- -Ma 56e -Md 3 -Ms 9 -Mt 0 
r -t 0.106821427 -Hs 1 -Hd -2 -Ni 1 -Nx 55.00 -Ny 20.00 -Nz 0.00 -Ne -1.000000 -Nl MAC -Nw --- -Ma 56e -Md 3 -Ms 9 -Mt 0 
s -t 0.106831427 -Hs 1 -Hd -2 -Ni 1 -Nx 55.00 -Ny 20.00 -Nz 0.00 -Ne -1.000000 -Nl MAC -Nw --- -Ma 434 -Md 9 -Ms 0 -Mt 0 
r -t 0.107135760 -Hs 3 -Hd -2 -Ni 3 -Nx 155.00 -Ny 20.00 -Nz 0.00 -Ne -1.000000 -Nl MAC -Nw --- -Ma 434 -Md 9 -Ms 0 -Mt 0 
s -t 0.107145760 -Hs 3 -Hd 1 -Ni 3 -Nx 155.00 -Ny 20.00 -Nz 0.00 -Ne -1.000000 -Nl MAC -Nw --- -Ma 13a -Md 3 -Ms 9 -Mt 800 -Is 3.255 -Id 1.255 -It AODVUU -Il 94 -If 0 -Ii 12 -Iv 1 -P aodvuu -Pt 0x9 -Ph 0 -Pd 1 -Pds 3 -Ps 511 -Pl 0.000000 -Pc REPLY 
r -t 0.107898093 -Hs 1 -Hd 1 -Ni 1 -Nx 55.00 -Ny 20.00 -Nz 0.00 -Ne -1.000000 -Nl MAC -Nw --- -Ma 13a -Md 3 -Ms 9 -Mt 800 -Is 3.255 -Id 1.255 -It AODVUU -Il 36 -If 0 -Ii 12 -Iv 1 -P aodvuu -Pt 0x9 -Ph 0 -Pd 1 -Pds 3 -Ps 511 -Pl 0.000000 -Pc REPLY 
s -t 0.107908093 -Hs 1 -Hd -2 -Ni 1 -Nx 55.00 -Ny 20.00 -Nz 0.00 -Ne -1.000000 -Nl MAC -Nw --- -Ma 0 -Md 9 -Ms 0 -Mt 0 
r -t 0.107923093 -Hs 1 -Hd 1 -Ni 1 -Nx 55.00 -Ny 20.00 -Nz 0.00 -Ne -1.000000 -Nl RTR -Nw --- -Ma 13a -Md 3 -Ms 9 -Mt 800 -Is 3.255 -Id 1.255 -It AODVUU -Il 36 -If 0 -Ii 12 -Iv 1 -P aodvuu -Pt 0x9 -Ph 0 -Pd 1 -Pds 3 -Ps 511 -Pl 0.000000 -Pc REPLY 
r -t 0.108212427 -Hs 3 -Hd -2 -Ni 3 -Nx 155.00 -Ny 20.00 -Nz 0.00 -Ne -1.000000 -Nl MAC -Nw --- -Ma 0 -Md 9 -Ms 0 -Mt 0 
s -t 0.108322260 -Hs 0 -Hd -2 -Ni 0 -Nx 5.00 -Ny 20.00 -Nz 0.00 -Ne -1.000000 -Nl MAC -Nw --- -Ma 56e -Md 6 -Ms 0 -Mt 0 
r -t 0.108674593 -Hs 2 -Hd -2 -Ni 2 -Nx 105.00 -Ny 20.00 -Nz 0.00 -Ne -1.000000 -Nl MAC -Nw --- -Ma 56e -Md 6 -Ms 0 -Mt 0 
s -t 0.108684593 -Hs 2 -Hd -2 -Ni 2 -Nx 105.00 -Ny 20.00 -Nz 0.00 -Ne -1.000000 -Nl MAC -Nw --- -Ma 434 -Md 0 -Ms 0 -Mt 0 
s -t 0.108823468 -Hs 3 -Hd 0 -Ni 3 -Nx 155.00 -Ny 20.00 -Nz 0.00 -Ne -1.000000 -Nl RTR -Nw --- -Ma 0 -Md 0 -Ms 0 -Mt 0 -Is 3.255 -Id -1.255 -It AODVUU -Il 48 -If 0 -Ii 3 -Iv 1 -P aodvuu -Pt 0x0 -Ph 2 -Pd 3 -Pds 1 -Ps 255 -Pl 32.000000 -Pc HELLO 
s -t 0.108823468 -Hs 3 -Hd 0 -Ni 3 -Nx 155.00 -Ny 20.00 -Nz 0.00 -Ne -1.000000 -Nl RTR -Nw --- -Ma 0 -Md 0 -Ms 0 -Mt 0 -Is 3.255 -Id -1.255 -It AODVUU -Il 48 -If 0 -Ii 3 -Iv 1 -P aodvuu -Pt 0x0 -Ph 2 -Pd 3 -Pds 1 -Ps 255 -Pl 32.000000 -Pc HELLO 
s -t 0.108823468 -Hs 3 -Hd 0 -Ni 3 -Nx 155.00 -Ny 20.00 -Nz 0.00 -Ne -1.000000 -Nl RTR -Nw --- -Ma 0 -Md 0 -Ms 0 -Mt 0 -Is 3.255 -Id -1.255 -It AODVUU -Il 48 -If 0 -Ii 3 -Iv 1 -P aodvuu -Pt 0x0 -Ph 2 -Pd 3 -Pds 1 -Ps 255 -Pl 32.000000 -Pc HELLO 
r -t 0.108988927 -Hs 0 -Hd -2 -Ni 0 -Nx 5.00 -Ny 20.00 -Nz 0.00 -Ne -1.000000 -Nl MAC -Nw --- -Ma 434 -Md 0 -Ms 0 -Mt 0 
s -t 0.108998927 -Hs 0 -Hd 2 -Ni 0 -Nx 5.00 -Ny 20.00 -Nz 0.00 -Ne -1.000000 -Nl MAC -Nw --- -Ma 13a -Md 6 -Ms 0 -Mt 800 -Is 0.255 -Id 2.255 -It AODVUU -Il 94 -If 0 -Ii 18 -Iv 1 -P aodvuu -Pt 0x9 -Ph 0 -Pd 2 -Pds 0 -Ps 511 -Pl 0.000000 -Pc REPLY 
s -t 0.109078468 -Hs 3 -Hd 0 -Ni 3 -Nx 155.00 -Ny 20.00 -Nz 0.00 -Ne -1.000000 -Nl MAC -Nw --- -Ma 0 -Md ffffffff -Ms b -Mt 800 -Is 3.255 -Id -1.255 -It AODVUU -Il 106 -If 0 -Ii 3 -Iv 1 -P aodvuu -Pt 0x0 -Ph 2 -Pd 3 -Pds 1 -Ps 255 -Pl 32.000000 -Pc HELLO 
s -t 0.109338468 -Hs 3 -Hd 0 -Ni 3 -Nx 155.00 -Ny 20.00 -Nz 0.00 -Ne -1.000000 -Nl MAC -Nw --- -Ma 0 -Md ffffffff -Ms a -Mt 800 -Is 3.255 -Id -1.255 -It AODVUU -Il 106 -If 0 -Ii 3 -Iv 1 -P aodvuu -Pt 0x0 -Ph 2 -Pd 3 -Pds 1 -Ps 255 -Pl 32.000000 -Pc HELLO 
r -t 0.109751260 -Hs 2 -Hd 2 -Ni 2 -Nx 105.00 -Ny 20.00 -Nz 0.00 -Ne -1.000000 -Nl MAC -Nw --- -Ma 13a -Md 6 -Ms 0 -Mt 800 -Is 0.255 -Id 2.255 -It AODVUU -Il 36 -If 0 -Ii 18 -Iv 1 -P aodvuu -Pt 0x9 -Ph 0 -Pd 2 -Pds 0 -Ps 511 -Pl 0.000000 -Pc REPLY 
s -t 0.109761260 -Hs 2 -Hd -2 -Ni 2 -Nx 105.00 -Ny 20.00 -Nz 0.00 -Ne -1.000000 -Nl MAC -Nw --- -Ma 0 -Md 0 -Ms 0 -Mt 0 
r -t 0.109776260 -Hs 2 -Hd 2 -Ni 2 -Nx 105.00 -Ny 20.00 -Nz 0.00 -Ne -1.000000 -Nl RTR -Nw --- -Ma 13a -Md 6 -Ms 0 -Mt 800 -Is 0.255 -Id 2.255 -It AODVUU -Il 36 -If 0 -Ii 18 -Iv 1 -P aodvuu -Pt 0x9 -Ph 0 -Pd 2 -Pds 0 -Ps 511 -Pl 0.000000 -Pc REPLY 
r -t 0.109926634 -Hs 2 -Hd 0 -Ni 2 -Nx 105.00 -Ny 20.00 -Nz 0.00 -Ne -1.000000 -Nl MAC -Nw --- -Ma 0 -Md ffffffff -Ms b -Mt 800 -Is 3.255 -Id -1.255 -It AODVUU -Il 48 -If 0 -Ii 3 -Iv 1 -P aodvuu -Pt 0x0 -Ph 2 -Pd 3 -Pds 1 -Ps 255 -Pl 32.000000 -Pc HELLO 
r -t 0.109926801 -Hs 1 -Hd 0 -Ni 1 -Nx 55.00 -Ny 20.00 -Nz 0.00 -Ne -1.000000 -Nl MAC -Nw --- -Ma 0 -Md ffffffff -Ms b -Mt 800 -Is 3.255 -Id -1.255 -It AODVUU -Il 48 -If 0 -Ii 3 -Iv 1 -P aodvuu -Pt 0x0 -Ph 2 -Pd 3 -Pds 1 -Ps 255 -Pl 32.000000 -Pc HELLO 
r -t 0.109926968 -Hs 0 -Hd 0 -Ni 0 -Nx 5.00 -Ny 20.00 -Nz 0.00 -Ne -1.000000 -Nl MAC -Nw --- -Ma 0 -Md ffffffff -Ms b -Mt 800 -Is 3.255 -Id -1.255 -It AODVUU -Il 48 -If 0 -Ii 3 -Iv 1 -P aodvuu -Pt 0x0 -Ph 2 -Pd 3 -Pds 1 -Ps 255 -Pl 32.000000 -Pc HELLO 
r -t 0.109951634 -Hs 2 -Hd 0 -Ni 2 -Nx 105.00 -Ny 20.00 -Nz 0.00 -Ne -1.000000 -Nl RTR -Nw --- -Ma 0 -Md ffffffff -Ms b -Mt 800 -Is 3.255 -Id -1.255 -It AODVUU -Il 48 -If 0 -Ii 3 -Iv 1 -P aodvuu -Pt 0x0 -Ph 2 -Pd 3 -Pds 1 -Ps 255 -Pl 32.000000 -Pc HELLO 
s -t 0.109951634 -Hs 2 -Hd 3 -Ni 2 -Nx 105.00 -Ny 20.00 -Nz 0.00 -Ne -1.000000 -Nl RTR -Nw --- -Ma 0 -Md 0 -Ms 0 -Mt 0 -Is 2.255 -Id 3.255 -It AODVUU -Il 36 -If 0 -Ii 19 -Iv 1 -P aodvuu -Pt 0x9 -Ph 0 -Pd 3 -Pds 2 -Ps 511 -Pl 0.000000 -Pc REPLY 
r -t 0.109951801 -Hs 1 -Hd 0 -Ni 1 -Nx 55.00 -Ny 20.00 -Nz 0.00 -Ne -1.000000 -Nl RTR -Nw --- -Ma 0 -Md ffffffff -Ms b -Mt 800 -Is 3.255 -Id -1.255 -It AODVUU -Il 48 -If 0 -Ii 3 -Iv 1 -P aodvuu -Pt 0x0 -Ph 2 -Pd 3 -Pds 1 -Ps 255 -Pl 32.000000 -Pc HELLO 
s -t 0.109951801 -Hs 1 -Hd 3 -Ni 1 -Nx 55.00 -Ny 20.00 -Nz 0.00 -Ne -1.000000 -Nl RTR -Nw --- -Ma 0 -Md 0 -Ms 0 -Mt 0 -Is 1.255 -Id 3.255 -It AODVUU -Il 36 -If 0 -Ii 20 -Iv 1 -P aodvuu -Pt 0x9 -Ph 0 -Pd 3 -Pds 1 -Ps 511 -Pl 0.000000 -Pc REPLY 
r -t 0.109951968 -Hs 0 -Hd 0 -Ni 0 -Nx 5.00 -Ny 20.00 -Nz 0.00 -Ne -1.000000 -Nl RTR -Nw --- -Ma 0 -Md ffffffff -Ms b -Mt 800 -Is 3.255 -Id -1.255 -It AODVUU -Il 48 -If 0 -Ii 3 -Iv 1 -P aodvuu -Pt 0x0 -Ph 2 -Pd 3 -Pds 1 -Ps 255 -Pl 32.000000 -Pc HELLO 
s -t 0.109951968 -Hs 0 -Hd 3 -Ni 0 -Nx 5.00 -Ny 20.00 -Nz 0.00 -Ne -1.000000 -Nl RTR -Nw --- -Ma 0 -Md 0 -Ms 0 -Mt 0 -Is 0.255 -Id 3.255 -It AODVUU -Il 36 -If 0 -Ii 21 -Iv 1 -P aodvuu -Pt 0x9 -Ph 0 -Pd 3 -Pds 0 -Ps 511 -Pl 0.000000 -Pc REPLY 
r -t 0.110065593 -Hs 0 -Hd -2 -Ni 0 -Nx 5.00 -Ny 20.00 -Nz 0.00 -Ne -1.000000 -Nl MAC -Nw --- -Ma 0 -Md 0 -Ms 0 -Mt 0 
s -t 0.110175260 -Hs 2 -Hd 0 -Ni 2 -Nx 105.00 -Ny 20.00 -Nz 0.00 -Ne -1.000000 -Nl MAC -Nw --- -Ma 0 -Md ffffffff -Ms 6 -Mt 800 -Is 2.255 -Id -1.255 -It AODVUU -Il 106 -If 0 -Ii 2 -Iv 1 -P aodvuu -Pt 0x0 -Ph 2 -Pd 2 -Pds 1 -Ps 255 -Pl 32.000000 -Pc HELLO 
r -t 0.110186634 -Hs 2 -Hd 0 -Ni 2 -Nx 105.00 -Ny 20.00 -Nz 0.00 -Ne -1.000000 -Nl MAC -Nw --- -Ma 0 -Md ffffffff -Ms a -Mt 800 -Is 3.255 -Id -1.255 -It AODVUU -Il 48 -If 0 -Ii 3 -Iv 1 -P aodvuu -Pt 0x0 -Ph 2 -Pd 3 -Pds 1 -Ps 255 -Pl 32.000000 -Pc HELLO 
r -t 0.110186801 -Hs 1 -Hd 0 -Ni 1 -Nx 55.00 -Ny 20.00 -Nz 0.00 -Ne -1.000000 -Nl MAC -Nw --- -Ma 0 -Md ffffffff -Ms a -Mt 800 -Is 3.255 -Id -1.255 -It AODVUU -Il 48 -If 0 -Ii 3 -Iv 1 -P aodvuu -Pt 0x0 -Ph 2 -Pd 3 -Pds 1 -Ps 255 -Pl 32.000000 -Pc HELLO 
r -t 0.110186968 -Hs 0 -Hd 0 -Ni 0 -Nx 5.00 -Ny 20.00 -Nz 0.00 -Ne -1.000000 -Nl MAC -Nw --- -Ma 0 -Md ffffffff -Ms a -Mt 800 -Is 3.255 -Id -1.255 -It AODVUU -Il 48 -If 0 -Ii 3 -Iv 1 -P aodvuu -Pt 0x0 -Ph 2 -Pd 3 -Pds 1 -Ps 255 -Pl 32.000000 -Pc HELLO 
r -t 0.110211634 -Hs 2 -Hd 0 -Ni 2 -Nx 105.00 -Ny 20.00 -Nz 0.00 -Ne -1.000000 -Nl RTR -Nw --- -Ma 0 -Md ffffffff -Ms a -Mt 800 -Is 3.255 -Id -1.255 -It AODVUU -Il 48 -If 0 -Ii 3 -Iv 1 -P aodvuu -Pt 0x0 -Ph 2 -Pd 3 -Pds 1 -Ps 255 -Pl 32.000000 -Pc HELLO 
s -t 0.110211634 -Hs 2 -Hd 3 -Ni 2 -Nx 105.00 -Ny 20.00 -Nz 0.00 -Ne -1.000000 -Nl RTR -Nw --- -Ma 0 -Md 0 -Ms 0 -Mt 0 -Is 2.255 -Id 3.255 -It AODVUU -Il 36 -If 0 -Ii 22 -Iv 1 -P aodvuu -Pt 0x9 -Ph 0 -Pd 3 -Pds 2 -Ps 511 -Pl 0.000000 -Pc REPLY 
r -t 0.110211801 -Hs 1 -Hd 0 -Ni 1 -Nx 55.00 -Ny 20.00 -Nz 0.00 -Ne -1.000000 -Nl RTR -Nw --- -Ma 0 -Md ffffffff -Ms a -Mt 800 -Is 3.255 -Id -1.255 -It AODVUU -Il 48 -If 0 -Ii 3 -Iv 1 -P aodvuu -Pt 0x0 -Ph 2 -Pd 3 -Pds 1 -Ps 255 -Pl 32.000000 -Pc HELLO 
s -t 0.110211801 -Hs 1 -Hd 3 -Ni 1 -Nx 55.00 -Ny 20.00 -Nz 0.00 -Ne -1.000000 -Nl RTR -Nw --- -Ma 0 -Md 0 -Ms 0 -Mt 0 -Is 1.255 -Id 3.255 -It AODVUU -Il 36 -If 0 -Ii 23 -Iv 1 -P aodvuu -Pt 0x9 -Ph 0 -Pd 3 -Pds 1 -Ps 511 -Pl 0.000000 -Pc REPLY 
r -t 0.110211968 -Hs 0 -Hd 0 -Ni 0 -Nx 5.00 -Ny 20.00 -Nz 0.00 -Ne -1.000000 -Nl RTR -Nw --- -Ma 0 -Md ffffffff -Ms a -Mt 800 -Is 3.255 -Id -1.255 -It AODVUU -Il 48 -If 0 -Ii 3 -Iv 1 -P aodvuu -Pt 0x0 -Ph 2 -Pd 3 -Pds 1 -Ps 255 -Pl 32.000000 -Pc HELLO 
s -t 0.110211968 -Hs 0 -Hd 3 -Ni 0 -Nx 5.00 -Ny 20.00 -Nz 0.00 -Ne -1.000000 -Nl RTR -Nw --- -Ma 0 -Md 0 -Ms 0 -Mt 0 -Is 0.255 -Id 3.255 -It AODVUU -Il 36 -If 0 -Ii 24 -Iv 1 -P aodvuu -Pt 0x9 -Ph 0 -Pd 3 -Pds 0 -Ps 511 -Pl 0.000000 -Pc REPLY 
r -t 0.111023427 -Hs 1 -Hd 0 -Ni 1 -Nx 55.00 -Ny 20.00 -Nz 0.00 -Ne -1.000000 -Nl MAC -Nw --- -Ma 0 -Md ffffffff -Ms 6 -Mt 800 -Is 2.255 -Id -1.255 -It AODVUU -Il 48 -If 0 -Ii 2 -Iv 1 -P aodvuu -Pt 0x0 -Ph 2 -Pd 2 -Pds 1 -Ps 255 -Pl 32.000000 -Pc HELLO 
r -t 0.111023427 -Hs 3 -Hd 0 -Ni 3 -Nx 155.00 -Ny 20.00 -Nz 0.00 -Ne -1.000000 -Nl MAC -Nw --- -Ma 0 -Md ffffffff -Ms 6 -Mt 800 -Is 2.255 -Id -1.255 -It AODVUU -Il 48 -If 0 -Ii 2 -Iv 1 -P aodvuu -Pt 0x0 -Ph 2 -Pd 2 -Pds 1 -Ps 255 -Pl 32.000000 -Pc HELLO 
r -t 0.111023593 -Hs 0 -Hd 0 -Ni 0 -Nx 5.00 -Ny 20.00 -Nz 0.00 -Ne -1.000000 -Nl MAC -Nw --- -Ma 0 -Md ffffffff -Ms 6 -Mt 800 -Is 2.255 -Id -1.255 -It AODVUU -Il 48 -If 0 -Ii 2 -Iv 1 -P aodvuu -Pt 0x0 -Ph 2 -Pd 2 -Pds 1 -Ps 255 -Pl 32.000000 -Pc HELLO 
r -t 0.111048427 -Hs 1 -Hd 0 -Ni 1 -Nx 55.00 -Ny 20.00 -Nz 0.00 -Ne -1.000000 -Nl RTR -Nw --- -Ma 0 -Md ffffffff -Ms 6 -Mt 800 -Is 2.255 -Id -1.255 -It AODVUU -Il 48 -If 0 -Ii 2 -Iv 1 -P aodvuu -Pt 0x0 -Ph 2 -Pd 2 -Pds 1 -Ps 255 -Pl 32.000000 -Pc HELLO 
r -t 0.111048427 -Hs 3 -Hd 0 -Ni 3 -Nx 155.00 -Ny 20.00 -Nz 0.00 -Ne -1.000000 -Nl RTR -Nw --- -Ma 0 -Md ffffffff -Ms 6 -Mt 800 -Is 2.255 -Id -1.255 -It AODVUU -Il 48 -If 0 -Ii 2 -Iv 1 -P aodvuu -Pt 0x0 -Ph 2 -Pd 2 -Pds 1 -Ps 255 -Pl 32.000000 -Pc HELLO 
s -t 0.111048427 -Hs 1 -Hd 2 -Ni 1 -Nx 55.00 -Ny 20.00 -Nz 0.00 -Ne -1.000000 -Nl RTR -Nw --- -Ma 0 -Md 0 -Ms 0 -Mt 0 -Is 1.255 -Id 2.255 -It AODVUU -Il 36 -If 0 -Ii 25 -Iv 1 -P aodvuu -Pt 0x9 -Ph 0 -Pd 2 -Pds 1 -Ps 511 -Pl 0.000000 -Pc REPLY 