n -t * -s 0  -x 5 -y 20 -Z 0 -z 10  -v circle -c black
n -t * -s 1  -x 55 -y 20 -Z 0 -z 10  -v circle -c black
n -t * -s 2  -x 105 -y 20 -Z 0 -z 10  -v circle -c black
n -t * -s 3  -x 155 -y 20 -Z 0 -z 10  -v circle -c black
V -t * -v 1.0a5 -a 0
W -t * -x 1000 -y 1000
A -t * -n 1 -p 0 -o 0x7fffffff -c 30 -a 1
A -t * -h 1 -m 1073741823 -s 0
+ -t 0.100284093 -s 1 -d 0 -p AODVUU -e 48 -c 2 -a 0 -i 1 -k RTR 
- -t 0.100284093 -s 1 -d 0 -p AODVUU -e 48 -c 2 -a 0 -i 1 -k RTR
h -t 0.100284093 -s 1 -d 0 -p AODVUU -e 48 -c 2 -a 0 -i 1 -k RTR
+ -t 0.100284093 -s 1 -d 0 -p AODVUU -e 48 -c 2 -a 0 -i 1 -k RTR 
- -t 0.100284093 -s 1 -d 0 -p AODVUU -e 48 -c 2 -a 0 -i 1 -k RTR
h -t 0.100284093 -s 1 -d 0 -p AODVUU -e 48 -c 2 -a 0 -i 1 -k RTR
+ -t 0.100284093 -s 1 -d 0 -p AODVUU -e 48 -c 2 -a 0 -i 1 -k RTR 
- -t 0.100284093 -s 1 -d 0 -p AODVUU -e 48 -c 2 -a 0 -i 1 -k RTR
h -t 0.100284093 -s 1 -d 0 -p AODVUU -e 48 -c 2 -a 0 -i 1 -k RTR
+ -t 0.100359093 -s 1 -d 0 -p AODVUU -e 106 -c 2 -a 0 -i 1 -k MAC 
- -t 0.100359093 -s 1 -d 0 -p AODVUU -e 106 -c 2 -a 0 -i 1 -k MAC
h -t 0.100359093 -s 1 -d 0 -p AODVUU -e 106 -c 2 -a 0 -i 1 -k MAC
+ -t 0.100519093 -s 1 -d 0 -p AODVUU -e 106 -c 2 -a 0 -i 1 -k MAC 
- -t 0.100519093 -s 1 -d 0 -p AODVUU -e 106 -c 2 -a 0 -i 1 -k MAC
h -t 0.100519093 -s 1 -d 0 -p AODVUU -e 106 -c 2 -a 0 -i 1 -k MAC
+ -t 0.100559093 -s 1 -d 0 -p AODVUU -e 106 -c 2 -a 0 -i 1 -k MAC 
- -t 0.100559093 -s 1 -d 0 -p AODVUU -e 106 -c 2 -a 0 -i 1 -k MAC
h -t 0.100559093 -s 1 -d 0 -p AODVUU -e 106 -c 2 -a 0 -i 1 -k MAC
r -t 0.101207260 -s 0 -d 0 -p AODVUU -e 48 -c 2 -a 0 -i 1 -k MAC
r -t 0.101207260 -s 2 -d 0 -p AODVUU -e 48 -c 2 -a 0 -i 1 -k MAC
r -t 0.101207427 -s 3 -d 0 -p AODVUU -e 48 -c 2 -a 0 -i 1 -k MAC
r -t 0.101232260 -s 0 -d 0 -p AODVUU -e 48 -c 2 -a 0 -i 1 -k RTR
r -t 0.101232260 -s 2 -d 0 -p AODVUU -e 48 -c 2 -a 0 -i 1 -k RTR
+ -t 0.101232260 -s 0 -d 1 -p AODVUU -e 36 -c 2 -a 0 -i 4 -k RTR 
- -t 0.101232260 -s 0 -d 1 -p AODVUU -e 36 -c 2 -a 0 -i 4 -k RTR
h -t 0.101232260 -s 0 -d 1 -p AODVUU -e 36 -c 2 -a 0 -i 4 -k RTR
+ -t 0.101232260 -s 2 -d 1 -p AODVUU -e 36 -c 2 -a 0 -i 5 -k RTR 
- -t 0.101232260 -s 2 -d 1 -p AODVUU -e 36 -c 2 -a 0 -i 5 -k RTR
h -t 0.101232260 -s 2 -d 1 -p AODVUU -e 36 -c 2 -a 0 -i 5 -k RTR
r -t 0.101232427 -s 3 -d 0 -p AODVUU -e 48 -c 2 -a 0 -i 1 -k RTR
+ -t 0.101232427 -s 3 -d 1 -p AODVUU -e 36 -c 2 -a 0 -i 6 -k RTR 
- -t 0.101232427 -s 3 -d 1 -p AODVUU -e 36 -c 2 -a 0 -i 6 -k RTR
h -t 0.101232427 -s 3 -d 1 -p AODVUU -e 36 -c 2 -a 0 -i 6 -k RTR
r -t 0.101367260 -s 0 -d 0 -p AODVUU -e 48 -c 2 -a 0 -i 1 -k MAC
r -t 0.101367260 -s 2 -d 0 -p AODVUU -e 48 -c 2 -a 0 -i 1 -k MAC
r -t 0.101367427 -s 3 -d 0 -p AODVUU -e 48 -c 2 -a 0 -i 1 -k MAC
r -t 0.101392260 -s 0 -d 0 -p AODVUU -e 48 -c 2 -a 0 -i 1 -k RTR
r -t 0.101392260 -s 2 -d 0 -p AODVUU -e 48 -c 2 -a 0 -i 1 -k RTR
+ -t 0.101392260 -s 0 -d 1 -p AODVUU -e 36 -c 2 -a 0 -i 7 -k RTR 
- -t 0.101392260 -s 0 -d 1 -p AODVUU -e 36 -c 2 -a 0 -i 7 -k RTR
h -t 0.101392260 -s 0 -d 1 -p AODVUU -e 36 -c 2 -a 0 -i 7 -k RTR
d -t 0.101392260 -s 0 -d 1 -p AODVUU -e 36 -c 2 -a 0 -i 4 -k IFQ
+ -t 0.101392260 -s 2 -d 1 -p AODVUU -e 36 -c 2 -a 0 -i 8 -k RTR 
- -t 0.101392260 -s 2 -d 1 -p AODVUU -e 36 -c 2 -a 0 -i 8 -k RTR
h -t 0.101392260 -s 2 -d 1 -p AODVUU -e 36 -c 2 -a 0 -i 8 -k RTR
d -t 0.101392260 -s 2 -d 1 -p AODVUU -e 36 -c 2 -a 0 -i 5 -k IFQ
r -t 0.101392427 -s 3 -d 0 -p AODVUU -e 48 -c 2 -a 0 -i 1 -k RTR
+ -t 0.101392427 -s 3 -d 1 -p AODVUU -e 36 -c 2 -a 0 -i 9 -k RTR 
- -t 0.101392427 -s 3 -d 1 -p AODVUU -e 36 -c 2 -a 0 -i 9 -k RTR
h -t 0.101392427 -s 3 -d 1 -p AODVUU -e 36 -c 2 -a 0 -i 9 -k RTR
d -t 0.101392427 -s 3 -d 1 -p AODVUU -e 36 -c 2 -a 0 -i 6 -k IFQ
r -t 0.101407260 -s 0 -d 0 -p AODVUU -e 48 -c 2 -a 0 -i 1 -k MAC
r -t 0.101407260 -s 2 -d 0 -p AODVUU -e 48 -c 2 -a 0 -i 1 -k MAC
r -t 0.101407427 -s 3 -d 0 -p AODVUU -e 48 -c 2 -a 0 -i 1 -k MAC
r -t 0.101432260 -s 0 -d 0 -p AODVUU -e 48 -c 2 -a 0 -i 1 -k RTR
r -t 0.101432260 -s 2 -d 0 -p AODVUU -e 48 -c 2 -a 0 -i 1 -k RTR
+ -t 0.101432260 -s 0 -d 1 -p AODVUU -e 36 -c 2 -a 0 -i 10 -k RTR 
- -t 0.101432260 -s 0 -d 1 -p AODVUU -e 36 -c 2 -a 0 -i 10 -k RTR
h -t 0.101432260 -s 0 -d 1 -p AODVUU -e 36 -c 2 -a 0 -i 10 -k RTR
d -t 0.101432260 -s 0 -d 1 -p AODVUU -e 36 -c 2 -a 0 -i 7 -k IFQ
+ -t 0.101432260 -s 2 -d 1 -p AODVUU -e 36 -c 2 -a 0 -i 11 -k RTR 
- -t 0.101432260 -s 2 -d 1 -p AODVUU -e 36 -c 2 -a 0 -i 11 -k RTR
h -t 0.101432260 -s 2 -d 1 -p AODVUU -e 36 -c 2 -a 0 -i 11 -k RTR
d -t 0.101432260 -s 2 -d 1 -p AODVUU -e 36 -c 2 -a 0 -i 8 -k IFQ
r -t 0.101432427 -s 3 -d 0 -p AODVUU -e 48 -c 2 -a 0 -i 1 -k RTR
+ -t 0.101432427 -s 3 -d 1 -p AODVUU -e 36 -c 2 -a 0 -i 12 -k RTR 
- -t 0.101432427 -s 3 -d 1 -p AODVUU -e 36 -c 2 -a 0 -i 12 -k RTR
h -t 0.101432427 -s 3 -d 1 -p AODVUU -e 36 -c 2 -a 0 -i 12 -k RTR
d -t 0.101432427 -s 3 -d 1 -p AODVUU -e 36 -c 2 -a 0 -i 9 -k IFQ
+ -t 0.101527427 -s 3 -d -1 -p ARP -e 86 -c 2 -a 0 -i 0 -k MAC 
- -t 0.101527427 -s 3 -d -1 -p ARP -e 86 -c 2 -a 0 -i 0 -k MAC
h -t 0.101527427 -s 3 -d -1 -p ARP -e 86 -c 2 -a 0 -i 0 -k MAC
+ -t 0.101762453 -s 2 -d 0 -p AODVUU -e 48 -c 2 -a 0 -i 2 -k RTR 
- -t 0.101762453 -s 2 -d 0 -p AODVUU -e 48 -c 2 -a 0 -i 2 -k RTR
h -t 0.101762453 -s 2 -d 0 -p AODVUU -e 48 -c 2 -a 0 -i 2 -k RTR
+ -t 0.101762453 -s 2 -d 0 -p AODVUU -e 48 -c 2 -a 0 -i 2 -k RTR 
- -t 0.101762453 -s 2 -d 0 -p AODVUU -e 48 -c 2 -a 0 -i 2 -k RTR
h -t 0.101762453 -s 2 -d 0 -p AODVUU -e 48 -c 2 -a 0 -i 2 -k RTR
+ -t 0.101762453 -s 2 -d 0 -p AODVUU -e 48 -c 2 -a 0 -i 2 -k RTR 
- -t 0.101762453 -s 2 -d 0 -p AODVUU -e 48 -c 2 -a 0 -i 2 -k RTR
h -t 0.101762453 -s 2 -d 0 -p AODVUU -e 48 -c 2 -a 0 -i 2 -k RTR
+ -t 0.101997453 -s 2 -d 0 -p AODVUU -e 106 -c 2 -a 0 -i 2 -k MAC 
- -t 0.101997453 -s 2 -d 0 -p AODVUU -e 106 -c 2 -a 0 -i 2 -k MAC
h -t 0.101997453 -s 2 -d 0 -p AODVUU -e 106 -c 2 -a 0 -i 2 -k MAC
+ -t 0.102197453 -s 2 -d 0 -p AODVUU -e 106 -c 2 -a 0 -i 2 -k MAC 
- -t 0.102197453 -s 2 -d 0 -p AODVUU -e 106 -c 2 -a 0 -i 2 -k MAC
h -t 0.102197453 -s 2 -d 0 -p AODVUU -e 106 -c 2 -a 0 -i 2 -k MAC
r -t 0.102215593 -s 2 -d -1 -p ARP -e 28 -c 2 -a 0 -i 0 -k MAC
r -t 0.102215760 -s 1 -d -1 -p ARP -e 28 -c 2 -a 0 -i 0 -k MAC
r -t 0.102215927 -s 0 -d -1 -p ARP -e 28 -c 2 -a 0 -i 0 -k MAC
+ -t 0.102285593 -s 2 -d -1 -p ARP -e 86 -c 2 -a 0 -i 0 -k MAC 
- -t 0.102285593 -s 2 -d -1 -p ARP -e 86 -c 2 -a 0 -i 0 -k MAC
h -t 0.102285593 -s 2 -d -1 -p ARP -e 86 -c 2 -a 0 -i 0 -k MAC
r -t 0.102845620 -s 1 -d 0 -p AODVUU -e 48 -c 2 -a 0 -i 2 -k MAC
r -t 0.102845620 -s 3 -d 0 -p AODVUU -e 48 -c 2 -a 0 -i 2 -k MAC
r -t 0.102845787 -s 0 -d 0 -p AODVUU -e 48 -c 2 -a 0 -i 2 -k MAC
r -t 0.102870620 -s 1 -d 0 -p AODVUU -e 48 -c 2 -a 0 -i 2 -k RTR
r -t 0.102870620 -s 3 -d 0 -p AODVUU -e 48 -c 2 -a 0 -i 2 -k RTR
+ -t 0.102870620 -s 1 -d 2 -p AODVUU -e 36 -c 2 -a 0 -i 13 -k RTR 
- -t 0.102870620 -s 1 -d 2 -p AODVUU -e 36 -c 2 -a 0 -i 13 -k RTR
h -t 0.102870620 -s 1 -d 2 -p AODVUU -e 36 -c 2 -a 0 -i 13 -k RTR
+ -t 0.102870620 -s 3 -d 2 -p AODVUU -e 36 -c 2 -a 0 -i 14 -k RTR 
- -t 0.102870620 -s 3 -d 2 -p AODVUU -e 36 -c 2 -a 0 -i 14 -k RTR
h -t 0.102870620 -s 3 -d 2 -p AODVUU -e 36 -c 2 -a 0 -i 14 -k RTR
r -t 0.102870787 -s 0 -d 0 -p AODVUU -e 48 -c 2 -a 0 -i 2 -k RTR
+ -t 0.102870787 -s 0 -d 2 -p AODVUU -e 36 -c 2 -a 0 -i 15 -k RTR 
- -t 0.102870787 -s 0 -d 2 -p AODVUU -e 36 -c 2 -a 0 -i 15 -k RTR
h -t 0.102870787 -s 0 -d 2 -p AODVUU -e 36 -c 2 -a 0 -i 15 -k RTR
r -t 0.102973760 -s 1 -d -1 -p ARP -e 28 -c 2 -a 0 -i 0 -k MAC
r -t 0.102973760 -s 3 -d -1 -p ARP -e 28 -c 2 -a 0 -i 0 -k MAC
r -t 0.102973927 -s 0 -d -1 -p ARP -e 28 -c 2 -a 0 -i 0 -k MAC
r -t 0.103045620 -s 1 -d 0 -p AODVUU -e 48 -c 2 -a 0 -i 2 -k MAC
r -t 0.103045620 -s 3 -d 0 -p AODVUU -e 48 -c 2 -a 0 -i 2 -k MAC
r -t 0.103045787 -s 0 -d 0 -p AODVUU -e 48 -c 2 -a 0 -i 2 -k MAC
r -t 0.103070620 -s 1 -d 0 -p AODVUU -e 48 -c 2 -a 0 -i 2 -k RTR
r -t 0.103070620 -s 3 -d 0 -p AODVUU -e 48 -c 2 -a 0 -i 2 -k RTR
+ -t 0.103070620 -s 1 -d 2 -p AODVUU -e 36 -c 2 -a 0 -i 16 -k RTR 
- -t 0.103070620 -s 1 -d 2 -p AODVUU -e 36 -c 2 -a 0 -i 16 -k RTR
h -t 0.103070620 -s 1 -d 2 -p AODVUU -e 36 -c 2 -a 0 -i 16 -k RTR
+ -t 0.103070620 -s 3 -d 2 -p AODVUU -e 36 -c 2 -a 0 -i 17 -k RTR 
- -t 0.103070620 -s 3 -d 2 -p AODVUU -e 36 -c 2 -a 0 -i 17 -k RTR
h -t 0.103070620 -s 3 -d 2 -p AODVUU -e 36 -c 2 -a 0 -i 17 -k RTR
r -t 0.103070787 -s 0 -d 0 -p AODVUU -e 48 -c 2 -a 0 -i 2 -k RTR
+ -t 0.103070787 -s 0 -d 2 -p AODVUU -e 36 -c 2 -a 0 -i 18 -k RTR 
- -t 0.103070787 -s 0 -d 2 -p AODVUU -e 36 -c 2 -a 0 -i 18 -k RTR
h -t 0.103070787 -s 0 -d 2 -p AODVUU -e 36 -c 2 -a 0 -i 18 -k RTR
+ -t 0.103123927 -s 0 -d -1 -p ARP -e 86 -c 2 -a 0 -i 0 -k MAC 
- -t 0.103123927 -s 0 -d -1 -p ARP -e 86 -c 2 -a 0 -i 0 -k MAC
h -t 0.103123927 -s 0 -d -1 -p ARP -e 86 -c 2 -a 0 -i 0 -k MAC
r -t 0.103812093 -s 1 -d -1 -p ARP -e 28 -c 2 -a 0 -i 0 -k MAC
r -t 0.103812260 -s 2 -d -1 -p ARP -e 28 -c 2 -a 0 -i 0 -k MAC
r -t 0.103812427 -s 3 -d -1 -p ARP -e 28 -c 2 -a 0 -i 0 -k MAC
+ -t 0.103922093 -s 1 -d -1 -p RTS -e 44 -c 2 -a 0 -i 0 -k MAC 
- -t 0.103922093 -s 1 -d -1 -p RTS -e 44 -c 2 -a 0 -i 0 -k MAC
h -t 0.103922093 -s 1 -d -1 -p RTS -e 44 -c 2 -a 0 -i 0 -k MAC
r -t 0.104274427 -s 3 -d -1 -p RTS -e 44 -c 2 -a 0 -i 0 -k MAC
+ -t 0.104284427 -s 3 -d -1 -p CTS -e 38 -c 2 -a 0 -i 0 -k MAC 
- -t 0.104284427 -s 3 -d -1 -p CTS -e 38 -c 2 -a 0 -i 0 -k MAC
h -t 0.104284427 -s 3 -d -1 -p CTS -e 38 -c 2 -a 0 -i 0 -k MAC
r -t 0.104588760 -s 1 -d -1 -p CTS -e 38 -c 2 -a 0 -i 0 -k MAC
+ -t 0.104598760 -s 1 -d -1 -p ARP -e 86 -c 2 -a 0 -i 0 -k MAC 
- -t 0.104598760 -s 1 -d -1 -p ARP -e 86 -c 2 -a 0 -i 0 -k MAC
h -t 0.104598760 -s 1 -d -1 -p ARP -e 86 -c 2 -a 0 -i 0 -k MAC
r -t 0.105287093 -s 3 -d -1 -p ARP -e 28 -c 2 -a 0 -i 0 -k MAC
+ -t 0.105297093 -s 3 -d -1 -p ACK -e 38 -c 2 -a 0 -i 0 -k MAC 
- -t 0.105297093 -s 3 -d -1 -p ACK -e 38 -c 2 -a 0 -i 0 -k MAC
h -t 0.105297093 -s 3 -d -1 -p ACK -e 38 -c 2 -a 0 -i 0 -k MAC
r -t 0.105601427 -s 1 -d -1 -p ACK -e 38 -c 2 -a 0 -i 0 -k MAC
+ -t 0.105711093 -s 3 -d -1 -p ARP -e 86 -c 2 -a 0 -i 0 -k MAC 
- -t 0.105711093 -s 3 -d -1 -p ARP -e 86 -c 2 -a 0 -i 0 -k MAC
h -t 0.105711093 -s 3 -d -1 -p ARP -e 86 -c 2 -a 0 -i 0 -k MAC
r -t 0.106399260 -s 2 -d -1 -p ARP -e 28 -c 2 -a 0 -i 0 -k MAC
r -t 0.106399427 -s 1 -d -1 -p ARP -e 28 -c 2 -a 0 -i 0 -k MAC
r -t 0.106399593 -s 0 -d -1 -p ARP -e 28 -c 2 -a 0 -i 0 -k MAC
+ -t 0.106469093 -s 3 -d -1 -p RTS -e 44 -c 2 -a 0 -i 0 -k MAC 
- -t 0.106469093 -s 3 -d -1 -p RTS -e 44 -c 2 -a 0 -i 0 -k MAC
h -t 0.106469093 -s 3 -d -1 -p RTS -e 44 -c 2 -a 0 -i 0 -k MAC
r -t 0.106821427 -s 1 -d -1 -p RTS -e 44 -c 2 -a 0 -i 0 -k MAC
+ -t 0.106831427 -s 1 -d -1 -p CTS -e 38 -c 2 -a 0 -i 0 -k MAC 
- -t 0.106831427 -s 1 -d -1 -p CTS -e 38 -c 2 -a 0 -i 0 -k MAC
h -t 0.106831427 -s 1 -d -1 -p CTS -e 38 -c 2 -a 0 -i 0 -k MAC
r -t 0.107135760 -s 3 -d -1 -p CTS -e 38 -c 2 -a 0 -i 0 -k MAC
+ -t 0.107145760 -s 3 -d 1 -p AODVUU -e 94 -c 2 -a 0 -i 12 -k MAC 
- -t 0.107145760 -s 3 -d 1 -p AODVUU -e 94 -c 2 -a 0 -i 12 -k MAC
h -t 0.107145760 -s 3 -d 1 -p AODVUU -e 94 -c 2 -a 0 -i 12 -k MAC
r -t 0.107898093 -s 1 -d 1 -p AODVUU -e 36 -c 2 -a 0 -i 12 -k MAC
+ -t 0.107908093 -s 1 -d -1 -p ACK -e 38 -c 2 -a 0 -i 0 -k MAC 
- -t 0.107908093 -s 1 -d -1 -p ACK -e 38 -c 2 -a 0 -i 0 -k MAC
h -t 0.107908093 -s 1 -d -1 -p ACK -e 38 -c 2 -a 0 -i 0 -k MAC
r -t 0.108212427 -s 3 -d -1 -p ACK -e 38 -c 2 -a 0 -i 0 -k MAC
+ -t 0.108322260 -s 0 -d -1 -p RTS -e 44 -c 2 -a 0 -i 0 -k MAC 
- -t 0.108322260 -s 0 -d -1 -p RTS -e 44 -c 2 -a 0 -i 0 -k MAC
h -t 0.108322260 -s 0 -d -1 -p RTS -e 44 -c 2 -a 0 -i 0 -k MAC
r -t 0.108674593 -s 2 -d -1 -p RTS -e 44 -c 2 -a 0 -i 0 -k MAC
+ -t 0.108684593 -s 2 -d -1 -p CTS -e 38 -c 2 -a 0 -i 0 -k MAC 
- -t 0.108684593 -s 2 -d -1 -p CTS -e 38 -c 2 -a 0 -i 0 -k MAC
h -t 0.108684593 -s 2 -d -1 -p CTS -e 38 -c 2 -a 0 -i 0 -k MAC
+ -t 0.108823468 -s 3 -d 0 -p AODVUU -e 48 -c 2 -a 0 -i 3 -k RTR 
- -t 0.108823468 -s 3 -d 0 -p AODVUU -e 48 -c 2 -a 0 -i 3 -k RTR
h -t 0.108823468 -s 3 -d 0 -p AODVUU -e 48 -c 2 -a 0 -i 3 -k RTR
+ -t 0.108823468 -s 3 -d 0 -p AODVUU -e 48 -c 2 -a 0 -i 3 -k RTR 
- -t 0.108823468 -s 3 -d 0 -p AODVUU -e 48 -c 2 -a 0 -i 3 -k RTR
h -t 0.108823468 -s 3 -d 0 -p AODVUU -e 48 -c 2 -a 0 -i 3 -k RTR
+ -t 0.108823468 -s 3 -d 0 -p AODVUU -e 48 -c 2 -a 0 -i 3 -k RTR 
- -t 0.108823468 -s 3 -d 0 -p AODVUU -e 48 -c 2 -a 0 -i 3 -k RTR
h -t 0.108823468 -s 3 -d 0 -p AODVUU -e 48 -c 2 -a 0 -i 3 -k RTR
r -t 0.108988927 -s 0 -d -1 -p CTS -e 38 -c 2 -a 0 -i 0 -k MAC
+ -t 0.108998927 -s 0 -d 2 -p AODVUU -e 94 -c 2 -a 0 -i 18 -k MAC 
- -t 0.108998927 -s 0 -d 2 -p AODVUU -e 94 -c 2 -a 0 -i 18 -k MAC
h -t 0.108998927 -s 0 -d 2 -p AODVUU -e 94 -c 2 -a 0 -i 18 -k MAC
+ -t 0.109078468 -s 3 -d 0 -p AODVUU -e 106 -c 2 -a 0 -i 3 -k MAC 
- -t 0.109078468 -s 3 -d 0 -p AODVUU -e 106 -c 2 -a 0 -i 3 -k MAC
h -t 0.109078468 -s 3 -d 0 -p AODVUU -e 106 -c 2 -a 0 -i 3 -k MAC
+ -t 0.109338468 -s 3 -d 0 -p AODVUU -e 106 -c 2 -a 0 -i 3 -k MAC 
- -t 0.109338468 -s 3 -d 0 -p AODVUU -e 106 -c 2 -a 0 -i 3 -k MAC
h -t 0.109338468 -s 3 -d 0 -p AODVUU -e 106 -c 2 -a 0 -i 3 -k MAC
r -t 0.109751260 -s 2 -d 2 -p AODVUU -e 36 -c 2 -a 0 -i 18 -k MAC
+ -t 0.109761260 -s 2 -d -1 -p ACK -e 38 -c 2 -a 0 -i 0 -k MAC 
- -t 0.109761260 -s 2 -d -1 -p ACK -e 38 -c 2 -a 0 -i 0 -k MAC
h -t 0.109761260 -s 2 -d -1 -p ACK -e 38 -c 2 -a 0 -i 0 -k MAC
r -t 0.109926634 -s 2 -d 0 -p AODVUU -e 48 -c 2 -a 0 -i 3 -k MAC
r -t 0.109926801 -s 1 -d 0 -p AODVUU -e 48 -c 2 -a 0 -i 3 -k MAC
r -t 0.109926968 -s 0 -d 0 -p AODVUU -e 48 -c 2 -a 0 -i 3 -k MAC
r -t 0.109951634 -s 2 -d 0 -p AODVUU -e 48 -c 2 -a 0 -i 3 -k RTR
+ -t 0.109951634 -s 2 -d 3 -p AODVUU -e 36 -c 2 -a 0 -i 19 -k RTR 
- -t 0.109951634 -s 2 -d 3 -p AODVUU -e 36 -c 2 -a 0 -i 19 -k RTR
h -t 0.109951634 -s 2 -d 3 -p AODVUU -e 36 -c 2 -a 0 -i 19 -k RTR
r -t 0.109951801 -s 1 -d 0 -p AODVUU -e 48 -c 2 -a 0 -i 3 -k RTR
+ -t 0.109951801 -s 1 -d 3 -p AODVUU -e 36 -c 2 -a 0 -i 20 -k RTR 
- -t 0.109951801 -s 1 -d 3 -p AODVUU -e 36 -c 2 -a 0 -i 20 -k RTR
h -t 0.109951801 -s 1 -d 3 -p AODVUU -e 36 -c 2 -a 0 -i 20 -k RTR
r -t 0.109951968 -s 0 -d 0 -p AODVUU -e 48 -c 2 -a 0 -i 3 -k RTR
+ -t 0.109951968 -s 0 -d 3 -p AODVUU -e 36 -c 2 -a 0 -i 21 -k RTR 
- -t 0.109951968 -s 0 -d 3 -p AODVUU -e 36 -c 2 -a 0 -i 21 -k RTR
h -t 0.109951968 -s 0 -d 3 -p AODVUU -e 36 -c 2 -a 0 -i 21 -k RTR
r -t 0.110065593 -s 0 -d -1 -p ACK -e 38 -c 2 -a 0 -i 0 -k MAC
+ -t 0.110175260 -s 2 -d 0 -p AODVUU -e 106 -c 2 -a 0 -i 2 -k MAC 
- -t 0.110175260 -s 2 -d 0 -p AODVUU -e 106 -c 2 -a 0 -i 2 -k MAC
h -t 0.110175260 -s 2 -d 0 -p AODVUU -e 106 -c 2 -a 0 -i 2 -k MAC
r -t 0.110186634 -s 2 -d 0 -p AODVUU -e 48 -c 2 -a 0 -i 3 -k MAC
r -t 0.110186801 -s 1 -d 0 -p AODVUU -e 48 -c 2 -a 0 -i 3 -k MAC
r -t 0.110186968 -s 0 -d 0 -p AODVUU -e 48 -c 2 -a 0 -i 3 -k MAC
r -t 0.110211634 -s 2 -d 0 -p AODVUU -e 48 -c 2 -a 0 -i 3 -k RTR
+ -t 0.110211634 -s 2 -d 3 -p AODVUU -e 36 -c 2 -a 0 -i 22 -k RTR 
- -t 0.110211634 -s 2 -d 3 -p AODVUU -e 36 -c 2 -a 0 -i 22 -k RTR
h -t 0.110211634 -s 2 -d 3 -p AODVUU -e 36 -c 2 -a 0 -i 22 -k RTR
r -t 0.110211801 -s 1 -d 0 -p AODVUU -e 48 -c 2 -a 0 -i 3 -k RTR
+ -t 0.110211801 -s 1 -d 3 -p AODVUU -e 36 -c 2 -a 0 -i 23 -k RTR 
- -t 0.110211801 -s 1 -d 3 -p AODVUU -e 36 -c 2 -a 0 -i 23 -k RTR
h -t 0.110211801 -s 1 -d 3 -p AODVUU -e 36 -c 2 -a 0 -i 23 -k RTR
r -t 0.110211968 -s 0 -d 0 -p AODVUU -e 48 -c 2 -a 0 -i 3 -k RTR
+ -t 0.110211968 -s 0 -d 3 -p AODVUU -e 36 -c 2 -a 0 -i 24 -k RTR 
- -t 0.110211968 -s 0 -d 3 -p AODVUU -e 36 -c 2 -a 0 -i 24 -k RTR
h -t 0.110211968 -s 0 -d 3 -p AODVUU -e 36 -c 2 -a 0 -i 24 -k RTR
r -t 0.111023427 -s 1 -d 0 -p AODVUU -e 48 -c 2 -a 0 -i 2 -k MAC
r -t 0.111023427 -s 3 -d 0 -p AODVUU -e 48 -c 2 -a 0 -i 2 -k MAC
r -t 0.111023593 -s 0 -d 0 -p AODVUU -e 48 -c 2 -a 0 -i 2 -k MAC
r -t 0.111048427 -s 1 -d 0 -p AODVUU -e 48 -c 2 -a 0 -i 2 -k RTR
r -t 0.111048427 -s 3 -d 0 -p AODVUU -e 48 -c 2 -a 0 -i 2 -k RTR
+ -t 0.111048427 -s 1 -d 2 -p AODVUU -e 36 -c 2 -a 0 -i 25 -k RTR 
- -t 0.111048427 -s 1 -d 2 -p AODVUU -e 36 -c 2 -a 0 -i 25 -k RTR
h -t 0.111048427 -s 1 -d 2 -p AODVUU -e 36 -c 2 -a 0 -i 25 -k RTR
+ -t 0.111048427 -s 3 -d 2 -p AODVUU -e 36 -c 2 -a 0 -i 26 -k RTR 
- -t 0.111048427 -s 3 -d 2 -p AODVUU -e 36 -c 2 -a 0 -i 26 -k RTR
h -t 0.111048427 -s 3 -d 2 -p AODVUU -e 36 -c 2 -a 0 -i 26 -k RTR
r -t 0.111048593 -s 0 -d 0 -p AODVUU -e 48 -c 2 -a 0 -i 2 -k RTR
+ -t 0.111048593 -s 0 -d 2 -p AODVUU -e 36 -c 2 -a 0 -i 27 -k RTR 
- -t 0.111048593 -s 0 -d 2 -p AODVUU -e 36 -c 2 -a 0 -i 27 -k RTR
h -t 0.111048593 -s 0 -d 2 -p AODVUU -e 36 -c 2 -a 0 -i 27 -k RTR
+ -t 0.111093427 -s 1 -d -1 -p RTS -e 44 -c 2 -a 0 -i 0 -k MAC 
- -t 0.111093427 -s 1 -d -1 -p RTS -e 44 -c 2 -a 0 -i 0 -k MAC
h -t 0.111093427 -s 1 -d -1 -p RTS -e 44 -c 2 -a 0 -i 0 -k MAC
+ -t 0.111117614 -s 0 -d 0 -p AODVUU -e 48 -c 2 -a 0 -i 0 -k RTR 
- -t 0.111117614 -s 0 -d 0 -p AODVUU -e 48 -c 2 -a 0 -i 0 -k RTR
h -t 0.111117614 -s 0 -d 0 -p AODVUU -e 48 -c 2 -a 0 -i 0 -k RTR
+ -t 0.111117614 -s 0 -d 0 -p AODVUU -e 48 -c 2 -a 0 -i 0 -k RTR 
- -t 0.111117614 -s 0 -d 0 -p AODVUU -e 48 -c 2 -a 0 -i 0 -k RTR
h -t 0.111117614 -s 0 -d 0 -p AODVUU -e 48 -c 2 -a 0 -i 0 -k RTR
+ -t 0.111117614 -s 0 -d 0 -p AODVUU -e 48 -c 2 -a 0 -i 0 -k RTR 
- -t 0.111117614 -s 0 -d 0 -p AODVUU -e 48 -c 2 -a 0 -i 0 -k RTR
h -t 0.111117614 -s 0 -d 0 -p AODVUU -e 48 -c 2 -a 0 -i 0 -k RTR
+ -t 0.111232614 -s 0 -d 0 -p AODVUU -e 106 -c 2 -a 0 -i 0 -k MAC 
- -t 0.111232614 -s 0 -d 0 -p AODVUU -e 106 -c 2 -a 0 -i 0 -k MAC
h -t 0.111232614 -s 0 -d 0 -p AODVUU -e 106 -c 2 -a 0 -i 0 -k MAC
r -t 0.111445593 -s 2 -d -1 -p RTS -e 44 -c 2 -a 0 -i 0 -k MAC
+ -t 0.111455593 -s 2 -d -1 -p CTS -e 38 -c 2 -a 0 -i 0 -k MAC 
- -t 0.111455593 -s 2 -d -1 -p CTS -e 38 -c 2 -a 0 -i 0 -k MAC
h -t 0.111455593 -s 2 -d -1 -p CTS -e 38 -c 2 -a 0 -i 0 -k MAC
+ -t 0.111492614 -s 0 -d 0 -p AODVUU -e 106 -c 2 -a 0 -i 0 -k MAC 
- -t 0.111492614 -s 0 -d 0 -p AODVUU -e 106 -c 2 -a 0 -i 0 -k MAC
h -t 0.111492614 -s 0 -d 0 -p AODVUU -e 106 -c 2 -a 0 -i 0 -k MAC
r -t 0.111759760 -s 1 -d -1 -p CTS -e 38 -c 2 -a 0 -i 0 -k MAC
+ -t 0.111769760 -s 1 -d 2 -p AODVUU -e 94 -c 2 -a 0 -i 16 -k MAC 
- -t 0.111769760 -s 1 -d 2 -p AODVUU -e 94 -c 2 -a 0 -i 16 -k MAC
h -t 0.111769760 -s 1 -d 2 -p AODVUU -e 94 -c 2 -a 0 -i 16 -k MAC
r -t 0.112080781 -s 1 -d 0 -p AODVUU -e 48 -c 2 -a 0 -i 0 -k MAC
r -t 0.112080948 -s 2 -d 0 -p AODVUU -e 48 -c 2 -a 0 -i 0 -k MAC
r -t 0.112081114 -s 3 -d 0 -p AODVUU -e 48 -c 2 -a 0 -i 0 -k MAC
r -t 0.112105781 -s 1 -d 0 -p AODVUU -e 48 -c 2 -a 0 -i 0 -k RTR
+ -t 0.112105781 -s 1 -d 0 -p AODVUU -e 36 -c 2 -a 0 -i 28 -k RTR 
- -t 0.112105781 -s 1 -d 0 -p AODVUU -e 36 -c 2 -a 0 -i 28 -k RTR
h -t 0.112105781 -s 1 -d 0 -p AODVUU -e 36 -c 2 -a 0 -i 28 -k RTR
r -t 0.112105948 -s 2 -d 0 -p AODVUU -e 48 -c 2 -a 0 -i 0 -k RTR
+ -t 0.112105948 -s 2 -d 0 -p AODVUU -e 36 -c 2 -a 0 -i 29 -k RTR 
- -t 0.112105948 -s 2 -d 0 -p AODVUU -e 36 -c 2 -a 0 -i 29 -k RTR
h -t 0.112105948 -s 2 -d 0 -p AODVUU -e 36 -c 2 -a 0 -i 29 -k RTR
r -t 0.112106114 -s 3 -d 0 -p AODVUU -e 48 -c 2 -a 0 -i 0 -k RTR
+ -t 0.112106114 -s 3 -d 0 -p AODVUU -e 36 -c 2 -a 0 -i 30 -k RTR 
- -t 0.112106114 -s 3 -d 0 -p AODVUU -e 36 -c 2 -a 0 -i 30 -k RTR
h -t 0.112106114 -s 3 -d 0 -p AODVUU -e 36 -c 2 -a 0 -i 30 -k RTR
r -t 0.112340781 -s 1 -d 0 -p AODVUU -e 48 -c 2 -a 0 -i 0 -k MAC
r -t 0.112340948 -s 2 -d 0 -p AODVUU -e 48 -c 2 -a 0 -i 0 -k MAC
r -t 0.112341114 -s 3 -d 0 -p AODVUU -e 48 -c 2 -a 0 -i 0 -k MAC
r -t 0.112365781 -s 1 -d 0 -p AODVUU -e 48 -c 2 -a 0 -i 0 -k RTR
+ -t 0.112365781 -s 1 -d 0 -p AODVUU -e 36 -c 2 -a 0 -i 31 -k RTR 
- -t 0.112365781 -s 1 -d 0 -p AODVUU -e 36 -c 2 -a 0 -i 31 -k RTR
h -t 0.112365781 -s 1 -d 0 -p AODVUU -e 36 -c 2 -a 0 -i 31 -k RTR
r -t 0.112365948 -s 2 -d 0 -p AODVUU -e 48 -c 2 -a 0 -i 0 -k RTR
+ -t 0.112365948 -s 2 -d 0 -p AODVUU -e 36 -c 2 -a 0 -i 32 -k RTR 
- -t 0.112365948 -s 2 -d 0 -p AODVUU -e 36 -c 2 -a 0 -i 32 -k RTR
h -t 0.112365948 -s 2 -d 0 -p AODVUU -e 36 -c 2 -a 0 -i 32 -k RTR
r -t 0.112366114 -s 3 -d 0 -p AODVUU -e 48 -c 2 -a 0 -i 0 -k RTR
+ -t 0.112366114 -s 3 -d 0 -p AODVUU -e 36 -c 2 -a 0 -i 33 -k RTR 
- -t 0.112366114 -s 3 -d 0 -p AODVUU -e 36 -c 2 -a 0 -i 33 -k RTR
h -t 0.112366114 -s 3 -d 0 -p AODVUU -e 36 -c 2 -a 0 -i 33 -k RTR
r -t 0.112521927 -s 2 -d 2 -p AODVUU -e 36 -c 2 -a 0 -i 16 -k MAC
+ -t 0.112531927 -s 2 -d -1 -p ACK -e 38 -c 2 -a 0 -i 0 -k MAC 
- -t 0.112531927 -s 2 -d -1 -p ACK -e 38 -c 2 -a 0 -i 0 -k MAC
h -t 0.112531927 -s 2 -d -1 -p ACK -e 38 -c 2 -a 0 -i 0 -k MAC
r -t 0.112836093 -s 1 -d -1 -p ACK -e 38 -c 2 -a 0 -i 0 -k MAC
+ -t 0.112966093 -s 1 -d -1 -p RTS -e 44 -c 2 -a 0 -i 0 -k MAC 
- -t 0.112966093 -s 1 -d -1 -p RTS -e 44 -c 2 -a 0 -i 0 -k MAC
h -t 0.112966093 -s 1 -d -1 -p RTS -e 44 -c 2 -a 0 -i 0 -k MAC
r -t 0.113318260 -s 0 -d -1 -p RTS -e 44 -c 2 -a 0 -i 0 -k MAC
+ -t 0.113328260 -s 0 -d -1 -p CTS -e 38 -c 2 -a 0 -i 0 -k MAC 
- -t 0.113328260 -s 0 -d -1 -p CTS -e 38 -c 2 -a 0 -i 0 -k MAC
h -t 0.113328260 -s 0 -d -1 -p CTS -e 38 -c 2 -a 0 -i 0 -k MAC
r -t 0.113632427 -s 1 -d -1 -p CTS -e 38 -c 2 -a 0 -i 0 -k MAC
+ -t 0.113642427 -s 1 -d 0 -p AODVUU -e 94 -c 2 -a 0 -i 31 -k MAC 
- -t 0.113642427 -s 1 -d 0 -p AODVUU -e 94 -c 2 -a 0 -i 31 -k MAC
h -t 0.113642427 -s 1 -d 0 -p AODVUU -e 94 -c 2 -a 0 -i 31 -k MAC
r -t 0.114394593 -s 0 -d 0 -p AODVUU -e 36 -c 2 -a 0 -i 31 -k MAC
+ -t 0.114404593 -s 0 -d -1 -p ACK -e 38 -c 2 -a 0 -i 0 -k MAC 
- -t 0.114404593 -s 0 -d -1 -p ACK -e 38 -c 2 -a 0 -i 0 -k MAC
h -t 0.114404593 -s 0 -d -1 -p ACK -e 38 -c 2 -a 0 -i 0 -k MAC
r -t 0.114708760 -s 1 -d -1 -p ACK -e 38 -c 2 -a 0 -i 0 -k MAC
+ -t 0.114779093 -s 3 -d -1 -p RTS -e 44 -c 2 -a 0 -i 0 -k MAC 
- -t 0.114779093 -s 3 -d -1 -p RTS -e 44 -c 2 -a 0 -i 0 -k MAC
h -t 0.114779093 -s 3 -d -1 -p RTS -e 44 -c 2 -a 0 -i 0 -k MAC
r -t 0.115131260 -s 2 -d -1 -p RTS -e 44 -c 2 -a 0 -i 0 -k MAC
+ -t 0.115141260 -s 2 -d -1 -p CTS -e 38 -c 2 -a 0 -i 0 -k MAC 
- -t 0.115141260 -s 2 -d -1 -p CTS -e 38 -c 2 -a 0 -i 0 -k MAC
h -t 0.115141260 -s 2 -d -1 -p CTS -e 38 -c 2 -a 0 -i 0 -k MAC
r -t 0.115445427 -s 3 -d -1 -p CTS -e 38 -c 2 -a 0 -i 0 -k MAC
+ -t 0.115455427 -s 3 -d 2 -p AODVUU -e 94 -c 2 -a 0 -i 17 -k MAC 
- -t 0.115455427 -s 3 -d 2 -p AODVUU -e 94 -c 2 -a 0 -i 17 -k MAC
h -t 0.115455427 -s 3 -d 2 -p AODVUU -e 94 -c 2 -a 0 -i 17 -k MAC
r -t 0.116207593 -s 2 -d 2 -p AODVUU -e 36 -c 2 -a 0 -i 17 -k MAC
+ -t 0.116217593 -s 2 -d -1 -p ACK -e 38 -c 2 -a 0 -i 0 -k MAC 
- -t 0.116217593 -s 2 -d -1 -p ACK -e 38 -c 2 -a 0 -i 0 -k MAC
h -t 0.116217593 -s 2 -d -1 -p ACK -e 38 -c 2 -a 0 -i 0 -k MAC
r -t 0.116521760 -s 3 -d -1 -p ACK -e 38 -c 2 -a 0 -i 0 -k MAC
+ -t 0.116771760 -s 3 -d -1 -p RTS -e 44 -c 2 -a 0 -i 0 -k MAC 
- -t 0.116771760 -s 3 -d -1 -p RTS -e 44 -c 2 -a 0 -i 0 -k MAC
h -t 0.116771760 -s 3 -d -1 -p RTS -e 44 -c 2 -a 0 -i 0 -k MAC
r -t 0.117124260 -s 0 -d -1 -p RTS -e 44 -c 2 -a 0 -i 0 -k MAC
+ -t 0.117134260 -s 0 -d -1 -p CTS -e 38 -c 2 -a 0 -i 0 -k MAC 
- -t 0.117134260 -s 0 -d -1 -p CTS -e 38 -c 2 -a 0 -i 0 -k MAC
h -t 0.117134260 -s 0 -d -1 -p CTS -e 38 -c 2 -a 0 -i 0 -k MAC
r -t 0.117438760 -s 3 -d -1 -p CTS -e 38 -c 2 -a 0 -i 0 -k MAC
+ -t 0.117448760 -s 3 -d 0 -p AODVUU -e 94 -c 2 -a 0 -i 33 -k MAC 
- -t 0.117448760 -s 3 -d 0 -p AODVUU -e 94 -c 2 -a 0 -i 33 -k MAC
h -t 0.117448760 -s 3 -d 0 -p AODVUU -e 94 -c 2 -a 0 -i 33 -k MAC
r -t 0.118201260 -s 0 -d 0 -p AODVUU -e 36 -c 2 -a 0 -i 33 -k MAC
+ -t 0.118211260 -s 0 -d -1 -p ACK -e 38 -c 2 -a 0 -i 0 -k MAC 
- -t 0.118211260 -s 0 -d -1 -p ACK -e 38 -c 2 -a 0 -i 0 -k MAC
h -t 0.118211260 -s 0 -d -1 -p ACK -e 38 -c 2 -a 0 -i 0 -k MAC
r -t 0.118515760 -s 3 -d -1 -p ACK -e 38 -c 2 -a 0 -i 0 -k MAC
+ -t 0.118605593 -s 2 -d -1 -p RTS -e 44 -c 2 -a 0 -i 0 -k MAC 
- -t 0.118605593 -s 2 -d -1 -p RTS -e 44 -c 2 -a 0 -i 0 -k MAC
h -t 0.118605593 -s 2 -d -1 -p RTS -e 44 -c 2 -a 0 -i 0 -k MAC
r -t 0.118957760 -s 3 -d -1 -p RTS -e 44 -c 2 -a 0 -i 0 -k MAC
+ -t 0.118967760 -s 3 -d -1 -p CTS -e 38 -c 2 -a 0 -i 0 -k MAC 
- -t 0.118967760 -s 3 -d -1 -p CTS -e 38 -c 2 -a 0 -i 0 -k MAC
h -t 0.118967760 -s 3 -d -1 -p CTS -e 38 -c 2 -a 0 -i 0 -k MAC
r -t 0.119271927 -s 2 -d -1 -p CTS -e 38 -c 2 -a 0 -i 0 -k MAC
+ -t 0.119281927 -s 2 -d 3 -p AODVUU -e 94 -c 2 -a 0 -i 22 -k MAC 
- -t 0.119281927 -s 2 -d 3 -p AODVUU -e 94 -c 2 -a 0 -i 22 -k MAC
h -t 0.119281927 -s 2 -d 3 -p AODVUU -e 94 -c 2 -a 0 -i 22 -k MAC
r -t 0.120034093 -s 3 -d 3 -p AODVUU -e 36 -c 2 -a 0 -i 22 -k MAC
+ -t 0.120044093 -s 3 -d -1 -p ACK -e 38 -c 2 -a 0 -i 0 -k MAC 
- -t 0.120044093 -s 3 -d -1 -p ACK -e 38 -c 2 -a 0 -i 0 -k MAC
h -t 0.120044093 -s 3 -d -1 -p ACK -e 38 -c 2 -a 0 -i 0 -k MAC
r -t 0.120348260 -s 2 -d -1 -p ACK -e 38 -c 2 -a 0 -i 0 -k MAC
+ -t 0.120418427 -s 1 -d -1 -p RTS -e 44 -c 2 -a 0 -i 0 -k MAC 
- -t 0.120418427 -s 1 -d -1 -p RTS -e 44 -c 2 -a 0 -i 0 -k MAC
h -t 0.120418427 -s 1 -d -1 -p RTS -e 44 -c 2 -a 0 -i 0 -k MAC
+ -t 0.120418593 -s 0 -d -1 -p RTS -e 44 -c 2 -a 0 -i 0 -k MAC 
- -t 0.120418593 -s 0 -d -1 -p RTS -e 44 -c 2 -a 0 -i 0 -k MAC
h -t 0.120418593 -s 0 -d -1 -p RTS -e 44 -c 2 -a 0 -i 0 -k MAC
d -t 0.120771093 -s 3 -d -1 -p RTS -e 44 -c 2 -a 0 -i 0 -k MAC
+ -t 0.121225093 -s 3 -d -1 -p RTS -e 44 -c 2 -a 0 -i 0 -k MAC 
- -t 0.121225093 -s 3 -d -1 -p RTS -e 44 -c 2 -a 0 -i 0 -k MAC
h -t 0.121225093 -s 3 -d -1 -p RTS -e 44 -c 2 -a 0 -i 0 -k MAC
r -t 0.121577593 -s 0 -d -1 -p RTS -e 44 -c 2 -a 0 -i 0 -k MAC
+ -t 0.121587593 -s 0 -d -1 -p CTS -e 38 -c 2 -a 0 -i 0 -k MAC 
- -t 0.121587593 -s 0 -d -1 -p CTS -e 38 -c 2 -a 0 -i 0 -k MAC
h -t 0.121587593 -s 0 -d -1 -p CTS -e 38 -c 2 -a 0 -i 0 -k MAC
r -t 0.121892093 -s 3 -d -1 -p CTS -e 38 -c 2 -a 0 -i 0 -k MAC
+ -t 0.121902093 -s 3 -d 0 -p AODVUU -e 94 -c 2 -a 0 -i 30 -k MAC 
- -t 0.121902093 -s 3 -d 0 -p AODVUU -e 94 -c 2 -a 0 -i 30 -k MAC
h -t 0.121902093 -s 3 -d 0 -p AODVUU -e 94 -c 2 -a 0 -i 30 -k MAC
r -t 0.122654593 -s 0 -d 0 -p AODVUU -e 36 -c 2 -a 0 -i 30 -k MAC
+ -t 0.122664593 -s 0 -d -1 -p ACK -e 38 -c 2 -a 0 -i 0 -k MAC 
- -t 0.122664593 -s 0 -d -1 -p ACK -e 38 -c 2 -a 0 -i 0 -k MAC
h -t 0.122664593 -s 0 -d -1 -p ACK -e 38 -c 2 -a 0 -i 0 -k MAC
r -t 0.122969093 -s 3 -d -1 -p ACK -e 38 -c 2 -a 0 -i 0 -k MAC
+ -t 0.123258760 -s 1 -d -1 -p RTS -e 44 -c 2 -a 0 -i 0 -k MAC 
- -t 0.123258760 -s 1 -d -1 -p RTS -e 44 -c 2 -a 0 -i 0 -k MAC
h -t 0.123258760 -s 1 -d -1 -p RTS -e 44 -c 2 -a 0 -i 0 -k MAC
r -t 0.123610927 -s 0 -d -1 -p RTS -e 44 -c 2 -a 0 -i 0 -k MAC
+ -t 0.123620927 -s 0 -d -1 -p CTS -e 38 -c 2 -a 0 -i 0 -k MAC 
- -t 0.123620927 -s 0 -d -1 -p CTS -e 38 -c 2 -a 0 -i 0 -k MAC
h -t 0.123620927 -s 0 -d -1 -p CTS -e 38 -c 2 -a 0 -i 0 -k MAC
r -t 0.123925093 -s 1 -d -1 -p CTS -e 38 -c 2 -a 0 -i 0 -k MAC
+ -t 0.123935093 -s 1 -d 0 -p AODVUU -e 94 -c 2 -a 0 -i 28 -k MAC 
- -t 0.123935093 -s 1 -d 0 -p AODVUU -e 94 -c 2 -a 0 -i 28 -k MAC
h -t 0.123935093 -s 1 -d 0 -p AODVUU -e 94 -c 2 -a 0 -i 28 -k MAC
r -t 0.124687260 -s 0 -d 0 -p AODVUU -e 36 -c 2 -a 0 -i 28 -k MAC
+ -t 0.124697260 -s 0 -d -1 -p ACK -e 38 -c 2 -a 0 -i 0 -k MAC 
- -t 0.124697260 -s 0 -d -1 -p ACK -e 38 -c 2 -a 0 -i 0 -k MAC
h -t 0.124697260 -s 0 -d -1 -p ACK -e 38 -c 2 -a 0 -i 0 -k MAC
r -t 0.125001427 -s 1 -d -1 -p ACK -e 38 -c 2 -a 0 -i 0 -k MAC
+ -t 0.125111427 -s 1 -d -1 -p RTS -e 44 -c 2 -a 0 -i 0 -k MAC 
- -t 0.125111427 -s 1 -d -1 -p RTS -e 44 -c 2 -a 0 -i 0 -k MAC
h -t 0.125111427 -s 1 -d -1 -p RTS -e 44 -c 2 -a 0 -i 0 -k MAC
r -t 0.125463593 -s 2 -d -1 -p RTS -e 44 -c 2 -a 0 -i 0 -k MAC
+ -t 0.125473593 -s 2 -d -1 -p CTS -e 38 -c 2 -a 0 -i 0 -k MAC 
- -t 0.125473593 -s 2 -d -1 -p CTS -e 38 -c 2 -a 0 -i 0 -k MAC
h -t 0.125473593 -s 2 -d -1 -p CTS -e 38 -c 2 -a 0 -i 0 -k MAC
r -t 0.125777760 -s 1 -d -1 -p CTS -e 38 -c 2 -a 0 -i 0 -k MAC
+ -t 0.125787760 -s 1 -d 2 -p AODVUU -e 94 -c 2 -a 0 -i 25 -k MAC 
- -t 0.125787760 -s 1 -d 2 -p AODVUU -e 94 -c 2 -a 0 -i 25 -k MAC
h -t 0.125787760 -s 1 -d 2 -p AODVUU -e 94 -c 2 -a 0 -i 25 -k MAC
r -t 0.126539927 -s 2 -d 2 -p AODVUU -e 36 -c 2 -a 0 -i 25 -k MAC
+ -t 0.126549927 -s 2 -d -1 -p ACK -e 38 -c 2 -a 0 -i 0 -k MAC 
- -t 0.126549927 -s 2 -d -1 -p ACK -e 38 -c 2 -a 0 -i 0 -k MAC
h -t 0.126549927 -s 2 -d -1 -p ACK -e 38 -c 2 -a 0 -i 0 -k MAC
r -t 0.126854093 -s 1 -d -1 -p ACK -e 38 -c 2 -a 0 -i 0 -k MAC
+ -t 0.127024093 -s 1 -d -1 -p RTS -e 44 -c 2 -a 0 -i 0 -k MAC 
- -t 0.127024093 -s 1 -d -1 -p RTS -e 44 -c 2 -a 0 -i 0 -k MAC
h -t 0.127024093 -s 1 -d -1 -p RTS -e 44 -c 2 -a 0 -i 0 -k MAC
r -t 0.127376427 -s 3 -d -1 -p RTS -e 44 -c 2 -a 0 -i 0 -k MAC
+ -t 0.127386427 -s 3 -d -1 -p CTS -e 38 -c 2 -a 0 -i 0 -k MAC 
- -t 0.127386427 -s 3 -d -1 -p CTS -e 38 -c 2 -a 0 -i 0 -k MAC
h -t 0.127386427 -s 3 -d -1 -p CTS -e 38 -c 2 -a 0 -i 0 -k MAC
r -t 0.127690760 -s 1 -d -1 -p CTS -e 38 -c 2 -a 0 -i 0 -k MAC
+ -t 0.127700760 -s 1 -d 3 -p AODVUU -e 94 -c 2 -a 0 -i 23 -k MAC 
- -t 0.127700760 -s 1 -d 3 -p AODVUU -e 94 -c 2 -a 0 -i 23 -k MAC
h -t 0.127700760 -s 1 -d 3 -p AODVUU -e 94 -c 2 -a 0 -i 23 -k MAC
r -t 0.128453093 -s 3 -d 3 -p AODVUU -e 36 -c 2 -a 0 -i 23 -k MAC
+ -t 0.128463093 -s 3 -d -1 -p ACK -e 38 -c 2 -a 0 -i 0 -k MAC 
- -t 0.128463093 -s 3 -d -1 -p ACK -e 38 -c 2 -a 0 -i 0 -k MAC
h -t 0.128463093 -s 3 -d -1 -p ACK -e 38 -c 2 -a 0 -i 0 -k MAC
r -t 0.128767427 -s 1 -d -1 -p ACK -e 38 -c 2 -a 0 -i 0 -k MAC
+ -t 0.128897260 -s 2 -d -1 -p RTS -e 44 -c 2 -a 0 -i 0 -k MAC 
- -t 0.128897260 -s 2 -d -1 -p RTS -e 44 -c 2 -a 0 -i 0 -k MAC
h -t 0.128897260 -s 2 -d -1 -p RTS -e 44 -c 2 -a 0 -i 0 -k MAC
r -t 0.129249593 -s 0 -d -1 -p RTS -e 44 -c 2 -a 0 -i 0 -k MAC
+ -t 0.129259593 -s 0 -d -1 -p CTS -e 38 -c 2 -a 0 -i 0 -k MAC 
- -t 0.129259593 -s 0 -d -1 -p CTS -e 38 -c 2 -a 0 -i 0 -k MAC
h -t 0.129259593 -s 0 -d -1 -p CTS -e 38 -c 2 -a 0 -i 0 -k MAC
r -t 0.129563927 -s 2 -d -1 -p CTS -e 38 -c 2 -a 0 -i 0 -k MAC
+ -t 0.129573927 -s 2 -d 0 -p AODVUU -e 94 -c 2 -a 0 -i 32 -k MAC 
- -t 0.129573927 -s 2 -d 0 -p AODVUU -e 94 -c 2 -a 0 -i 32 -k MAC
h -t 0.129573927 -s 2 -d 0 -p AODVUU -e 94 -c 2 -a 0 -i 32 -k MAC
r -t 0.130326260 -s 0 -d 0 -p AODVUU -e 36 -c 2 -a 0 -i 32 -k MAC
+ -t 0.130336260 -s 0 -d -1 -p ACK -e 38 -c 2 -a 0 -i 0 -k MAC 